75
# total energy = -211.11707659 eVAu     14.98743     16.97710      9.19633        -0.037630      0.007608     -0.012017
Au     16.05049     15.05821     14.38914        -0.024523     -0.045072      0.022946
Au     11.56448     18.98481     12.06225         0.027524      0.024617      0.000382
Au     21.11692     12.39958     11.74063        -0.013871     -0.011448     -0.005611
Au     17.43323     15.65758      9.59215        -0.025705     -0.042070      0.001772
Au     17.00720     18.29370     10.63786         0.002685      0.029983      0.000892
Au     22.03414     13.04720     14.32445         0.023960     -0.006442      0.018272
Au     13.47655     14.73158     10.09294        -0.000989      0.009610     -0.007144
Au     15.09835     10.05167     14.31488         0.023052     -0.014717     -0.024863
Au     19.27374     12.75697     13.87705         0.055183     -0.034919     -0.004754
Au     12.29828     17.32710      9.95214        -0.001004     -0.000473      0.017414
Au     18.98337     19.43974     12.27182         0.029262      0.039152      0.008002
Au     15.91000     13.32916     10.43933        -0.013401      0.014126      0.003546
Au     16.92020      9.90781     12.19467         0.020904     -0.004754     -0.014296
Au     11.03313     13.95477     13.65785         0.033311      0.007984      0.014455
Au     18.36027     12.02418     10.97713        -0.011984      0.012845     -0.006536
Au      9.96348     16.59583     13.42627        -0.005097      0.000718      0.019579
Au      9.96817     19.65612     14.12261        -0.024290      0.008874      0.059196
Au     14.01189     13.84001     12.78789        -0.012310      0.010120      0.061794
Au     12.57256     11.47615     13.79918        -0.036469     -0.011644     -0.001677
Au     19.63723     10.17143     12.77694         0.009703      0.006647     -0.017898
Au     12.72452     16.42428     12.63901        -0.030381      0.018976     -0.038722
Au     16.53179     12.43837     13.25769        -0.040262     -0.037184      0.014750
Au     16.31153     19.89779     13.00330         0.039649      0.048072     -0.025014
Au     19.82607     14.32581     10.19718         0.008730     -0.023416      0.018898
Au     13.61593     20.19905     13.73515        -0.017340      0.028256     -0.007807
Au     12.05466     12.60289     11.27740        -0.044645      0.005755     -0.007785
Au     15.44946     16.04080     11.76188         0.002086      0.043411      0.006421
Au     10.75733     15.14181     11.11133         0.010327      0.025253      0.021293
Au     17.51268     17.28395     13.32729         0.041194      0.014011     -0.039373
Au     21.14893     15.13155     12.65183         0.027344     -0.044025      0.014660
Au     14.45400     11.15011     11.66937         0.015652      0.041749     -0.027877
Au     14.77531     17.64430     14.16838        -0.043734      0.028003      0.026238
Au     20.46106     17.59278     13.83830         0.026996     -0.002995      0.025564
Au     17.96536     14.65069     12.24680         0.030439      0.019878     -0.045094
Au     19.54890     16.93403     11.17222         0.007527     -0.022057     -0.017282
Au     14.27086     18.86913     11.29427        -0.002174     -0.026846     -0.039451
Au     12.35757     19.58681     18.97326        -0.026522     -0.049396     -0.040221
Au     12.51376     14.88624     18.16077        -0.032707      0.008599     -0.013071
Au     17.75916     19.18705     17.78139         0.005829      0.064360      0.015921
Au     14.05891     17.49988     16.91995        -0.034091     -0.002060     -0.066742
Au      9.19341     17.62542     15.89939        -0.017795      0.067377     -0.006546
Au     18.47964     19.42424     15.02867        -0.006540      0.013075     -0.003419
Au     19.08306     17.25712     19.35679        -0.010074     -0.008623     -0.013770
Au     19.47833     13.22188     19.29165         0.001203      0.002084     -0.010357
Au     21.62388     15.59253     15.47969         0.023004     -0.021760     -0.005900
Au     20.53787     10.73723     15.37255         0.021461     -0.005304      0.013133
Au     18.74528     11.13829     17.52829         0.028848     -0.018647     -0.001992
Au     18.88601     15.32180     14.93395         0.029989      0.019961      0.030910
Au     18.22149     15.17005     17.66764         0.016010     -0.024467     -0.008201
Au     20.52394     13.22856     16.69092         0.107802     -0.054387      0.006654
Au     16.00495     10.67485     17.01094         0.042554     -0.005910      0.022981
Au     20.97843     15.53988     18.23090        -0.004568     -0.006581     -0.023272
Au     10.48720     15.27086     16.10183         0.034074     -0.118842     -0.002568
Au     17.60191     14.95448     20.41366        -0.010949     -0.003661     -0.021463
Au     15.08049     19.60929     18.50825         0.027904      0.023007     -0.008514
Au     10.54483     19.86205     16.88504         0.021711     -0.049770     -0.086999
Au     11.10313     17.27240     17.97038        -0.031175      0.052333      0.030278
Au     17.42872     13.06612     15.97684        -0.021640     -0.010676      0.026614
Au     17.83863     10.02035     14.98375         0.043659      0.005727     -0.006367
Au     15.84873     20.02259     15.77848        -0.041063     -0.007672     -0.011835
Au     15.42037     14.91865     17.16137        -0.029365      0.019993     -0.021033
Au     16.24466     17.12799     19.18027        -0.022548      0.036435      0.032169
Au     13.44329     17.12093     19.63436        -0.016553     -0.017142      0.032025
Au     12.03539     18.04272     14.99140         0.006471      0.021566      0.010777
Au     13.26904     10.50116     16.36951        -0.013409     -0.098773      0.044383
Au     13.22749     15.37874     15.23477        -0.039291      0.019533      0.024785
Au     14.01433     12.50021     18.21011         0.007033     -0.021512      0.035758
Au     16.71672     12.66186     18.95088         0.049744      0.025008     -0.041036
Au     11.89088     12.90384     16.21291        -0.127056      0.060609      0.028943
Au     14.62101     12.78586     15.39065         0.062507      0.028246     -0.055505
Au     14.84381     14.68178     19.84796        -0.031503     -0.023716      0.078884
Au     16.87535     17.15068     16.14072        -0.020217      0.030035      0.016332
Au     19.93909     17.65392     16.65436        -0.001344     -0.066999      0.012971
Au     13.21473     20.41089     16.43786        -0.041114      0.000361     -0.027580
