75
# total energy = -211.52350802 eVAu      8.29889      8.93001      4.82318        -0.022778      0.015146     -0.002224
Au      5.54906      8.26191      8.78800        -0.009824     -0.006444      0.014668
Au      8.74771      7.61407      9.88462        -0.003846     -0.003265     -0.010124
Au      6.80011      5.73928      9.38651        -0.003435      0.021305      0.002958
Au      7.39459      7.21415      6.98152         0.012041     -0.003450      0.006577
Au      6.56058      9.96924      6.68550         0.021539     -0.014654     -0.002689
Au     14.99248      8.56469      7.71515        -0.003078     -0.010145     -0.009245
Au     11.03279      9.73377      5.25098         0.003937     -0.013378     -0.005896
Au     15.90787      6.72024      9.61614         0.003683     -0.004798     -0.001066
Au     13.32746      8.12192      9.98186         0.017519      0.013267     -0.009585
Au     10.02695      7.04029      5.71483         0.010234     -0.017052      0.007446
Au     11.66047      4.34237      9.06746         0.009590      0.000722      0.010718
Au     11.77998      5.08964      6.42767         0.000935     -0.000819     -0.006849
Au     13.89802      5.85443      7.98307        -0.002507      0.014193      0.011383
Au     11.21270      7.26030      8.37042         0.013059      0.015030     -0.001692
Au     12.85290      7.72856      6.03879         0.023056     -0.014714      0.007009
Au      9.32482      9.28432      7.55716        -0.006789     -0.006978      0.013253
Au      9.20888      5.27248      7.86408        -0.008765      0.004416     -0.002449
Au      5.11422     13.86054      9.23390         0.002724     -0.011998      0.005382
Au      6.71665     12.75761      7.15871         0.014711     -0.019128      0.014489
Au      4.83531     11.07274      8.47703        -0.022708      0.004662      0.023875
Au      7.53144     10.41808      9.43094         0.005676      0.029629     -0.016951
Au      7.32216     15.27587      8.25262         0.011270     -0.004461      0.005420
Au      7.81256     13.23512     10.18225        -0.005315      0.009591     -0.000677
Au      8.78449     11.52342      5.63704        -0.002564     -0.017551      0.009045
Au     11.50690     12.34153      6.27399        -0.013093      0.008412     -0.006793
Au     12.40088     13.06853      8.89419        -0.005392      0.012922     -0.002200
Au     10.09748     14.82780      9.08072         0.014010     -0.011532     -0.000072
Au      9.70352     12.00259      8.42940        -0.006691     -0.001742      0.002435
Au     14.53624     11.18722      8.78918         0.028599     -0.016498     -0.002943
Au     11.99255     10.06593      8.24186        -0.047861     -0.018150      0.037413
Au     13.64361     10.47314      6.11447         0.015199      0.019346      0.009412
Au      9.21261     14.06915      6.55205         0.010041      0.009390     -0.004480
Au      7.26089      9.87942     14.68173        -0.014638     -0.010055     -0.005705
Au      3.92127      9.47736     10.74838        -0.007658      0.005581      0.000164
Au      4.91589      6.90259     11.19166         0.003589      0.011938      0.001338
Au      6.77191      8.93045     11.66550        -0.006407     -0.013819      0.005260
Au      8.37737      7.22870     14.81225        -0.006548      0.015782     -0.010631
Au      5.70287      7.64708     13.89931         0.001657      0.008650     -0.009800
Au      7.42741      6.07693     12.25798        -0.008578     -0.007396      0.004978
Au     10.24159      9.89441     10.39246        -0.001104      0.028788     -0.008294
Au      9.12811      4.58459     10.57843         0.015415     -0.009886     -0.027901
Au     14.20409      7.37856     14.76633         0.006206      0.000102      0.003279
Au     15.82561      9.35060     10.57895         0.003485     -0.002646      0.012612
Au     13.93397      4.94453     10.67690        -0.020801      0.033497     -0.003432
Au     12.88191      5.49494     13.26743         0.002572     -0.005349     -0.011868
Au     12.44734      8.42517     12.61674         0.009167      0.013483     -0.012570
Au     15.12846      7.01539     12.21576        -0.010672      0.010385     -0.010295
Au      9.92753      5.33860     13.32793         0.027930      0.003170      0.016884
Au     14.95320      9.71012     13.26135         0.017815     -0.020091     -0.007654
Au     12.79567      9.65339     15.23992         0.004660     -0.016808     -0.002430
Au     11.23693      6.47904     11.03991         0.007471     -0.012780      0.001531
Au     11.56705      3.65746     11.71820         0.007316      0.006836     -0.003032
Au      9.53356      8.35584     12.58780         0.003055      0.002312      0.011105
Au     11.26264      7.21069     14.92801        -0.006468      0.007831      0.005073
Au      9.88779      9.56744     15.55847         0.009162     -0.007200     -0.008925
Au      6.42054     12.57038     13.93377        -0.030524     -0.002676     -0.008667
Au      8.33626     11.17797     12.20042         0.008839      0.033667     -0.005244
Au      3.11013     12.17698     10.32575         0.015282      0.007895     -0.006881
Au      5.89732     14.59984     11.92545         0.001981     -0.014813      0.000593
Au      8.45819     14.40130     13.14780         0.006069     -0.026412     -0.008604
Au      3.86935     12.89495     12.93520         0.015528      0.007266     -0.006264
Au      4.72066     10.23404     13.50171        -0.007449      0.005650      0.000549
Au      5.72332     11.67755     11.21695        -0.049199      0.011378      0.010779
Au      8.08100     15.99126     10.86000         0.008050     -0.008295     -0.007249
Au     11.15681     13.76179     13.79712        -0.003266     -0.018220      0.003149
Au     13.05134     13.79754     11.58479        -0.008464      0.012639      0.006805
Au     11.50533     11.95748     15.85779        -0.018741      0.014086      0.004958
Au     12.79197     10.81985     10.99154        -0.053982     -0.025349      0.006112
Au     10.71451     15.48563     11.71557         0.010069      0.009420     -0.006921
Au     10.96323     10.83117     13.19430        -0.011204     -0.013895     -0.000267
Au     15.21364     11.95404     11.51242         0.004002      0.010006     -0.024155
Au      8.94448     12.22058     14.88810         0.021267     -0.015784     -0.003574
Au     10.47669     12.73179     11.08690        -0.007512     -0.001117      0.000740
Au     13.51648     12.07702     13.79677         0.009445     -0.009050      0.008900
