75
# total energy = -211.43922120 eVAu     14.96861     17.02880      9.25144         0.008038      0.007590      0.013414
Au     16.00197     15.11671     14.44939        -0.013134     -0.046089      0.014774
Au     11.68932     19.22463     12.09509         0.001861      0.027964     -0.008044
Au     21.12141     12.35650     11.72205        -0.022141      0.016967     -0.007877
Au     17.39622     15.66053      9.64704         0.006573      0.009548     -0.001801
Au     17.05742     18.32374     10.65340        -0.027301     -0.011237     -0.012034
Au     22.10053     12.95140     14.32705        -0.015260      0.001803      0.031147
Au     13.43883     14.79853     10.19302         0.000359      0.021049      0.010121
Au     15.13615     10.11312     14.32043         0.007834     -0.010727     -0.000959
Au     19.29962     12.75472     13.89655        -0.020737      0.020480      0.023064
Au     12.28355     17.42178     10.04610        -0.010188      0.006099     -0.004885
Au     19.09590     19.39264     12.31944         0.015802      0.010181     -0.010565
Au     15.87560     13.37603     10.48334        -0.011834      0.008389      0.004892
Au     16.91522      9.96341     12.17611        -0.007016     -0.002227      0.003985
Au     10.95585     13.88180     13.70881         0.005016     -0.037476      0.012819
Au     18.33538     12.04292     10.96578         0.012701      0.002128      0.015086
Au      9.87747     16.45142     13.55372        -0.013077     -0.026319      0.001716
Au      9.64920     19.27752     13.91964         0.026227     -0.005413      0.011151
Au     13.93105     13.90791     12.86871         0.007923      0.011079      0.022922
Au     12.54092     11.45425     13.85069         0.007783     -0.003676     -0.030757
Au     19.65276     10.17459     12.73067        -0.029299      0.008996     -0.011186
Au     12.67315     16.51361     12.67254         0.020557      0.017380      0.032804
Au     16.49584     12.49397     13.27485         0.009029      0.000551      0.014429
Au     16.44658     20.00500     12.92745        -0.006666      0.008161     -0.018158
Au     19.80948     14.29604     10.21447        -0.004574      0.009581      0.004648
Au     13.78652     20.37603     13.64393         0.007373     -0.013231     -0.026015
Au     11.98167     12.63919     11.34883        -0.002848     -0.009935     -0.002040
Au     15.41975     16.10392     11.82533        -0.009274      0.022435     -0.030230
Au     10.73674     15.20324     11.18690        -0.016267     -0.008093      0.000281
Au     17.49302     17.32775     13.35055         0.028839     -0.006748      0.000563
Au     21.10983     15.02614     12.70678         0.015520      0.000890     -0.006348
Au     14.41962     11.23521     11.71094         0.003726     -0.013561     -0.005826
Au     14.77269     17.71624     14.17465        -0.056084      0.016335     -0.024666
Au     20.49020     17.49209     13.88093         0.002267      0.008061     -0.008845
Au     17.94842     14.67137     12.28438         0.019391     -0.010716      0.002220
Au     19.55630     16.88490     11.20218         0.008631     -0.010466      0.009854
Au     14.33849     19.00981     11.22616         0.024523      0.007932      0.003078
Au     12.36949     19.45944     18.73916        -0.003601     -0.012296     -0.020072
Au     12.43921     14.79128     18.17010        -0.019236      0.010625      0.001080
Au     17.80909     19.21871     17.77626        -0.006323     -0.014631     -0.004592
Au     13.90541     17.57575     16.88010         0.001550     -0.003748     -0.035932
Au      9.04949     17.50516     15.99867         0.015303      0.037643     -0.011773
Au     18.54447     19.41293     15.04980         0.008177      0.006552      0.002438
Au     19.05726     17.19984     19.30340        -0.003160     -0.008936      0.012526
Au     19.56667     13.23151     19.23337        -0.017316     -0.032307     -0.007038
Au     21.62248     15.42024     15.51159        -0.010818     -0.025770      0.011125
Au     20.64497     10.71338     15.31425        -0.000223      0.019341      0.028580
Au     18.90184     11.21208     17.43949         0.014268      0.022151     -0.004354
Au     18.85785     15.31750     14.95310         0.006991     -0.010963     -0.020406
Au     18.14435     15.14718     17.62938         0.003982      0.026682      0.027798
Au     21.18696     12.93158     16.98256        -0.009667     -0.003542     -0.028193
Au     16.09740     10.70844     16.98872        -0.014638     -0.011529      0.009409
Au     20.95869     15.43111     18.20110         0.029845      0.006860     -0.034805
Au     10.34327     15.12570     16.16395         0.012109     -0.038750      0.012126
Au     17.61991     14.94231     20.37088         0.000580      0.008587     -0.003826
Au     15.11997     19.64149     18.36913        -0.006038      0.000271     -0.002424
Au     10.55977     19.76235     16.62989        -0.011899      0.000739      0.014440
Au     11.00485     17.17436     17.96086        -0.001113      0.006720      0.011974
Au     17.39755     13.07433     15.95436        -0.013183      0.004978     -0.028021
Au     17.90940     10.13210     14.94373        -0.000395     -0.020155     -0.002709
Au     15.91481     20.12178     15.69482        -0.008331      0.003261     -0.000441
Au     15.29043     15.00691     17.17640         0.017172      0.010042     -0.016550
Au     16.20038     17.16683     19.20650         0.025223      0.001500      0.042900
Au     13.39615     17.01282     19.58922        -0.007773      0.019072     -0.005971
Au     12.05465     18.23338     14.81957         0.023153      0.011714     -0.014406
Au     13.33737     10.49445     16.41283         0.004659     -0.050795      0.008997
Au     13.08696     15.44041     15.26204         0.001885      0.002967     -0.021060
Au     14.05758     12.48470     18.24104         0.005556     -0.021502      0.025901
Au     16.80414     12.70041     18.87143        -0.002587     -0.006047      0.005079
Au     11.81636     12.81462     16.26176        -0.034410      0.014813      0.012154
Au     14.55459     12.84137     15.41985         0.025304      0.037731     -0.034803
Au     14.85680     14.63992     19.87756         0.014947      0.002548      0.011880
Au     16.79923     17.22329     16.17100         0.014579     -0.012268      0.025107
Au     19.92546     17.54052     16.65273         0.004335      0.007848      0.006027
Au     13.23846     20.49958     16.31709        -0.033179     -0.017090      0.005104
