75
# total energy = -210.53709874 eVAu      8.27489      8.96637      4.77034        -0.008696     -0.018944     -0.068348
Au      5.72693      8.26542      8.93083        -0.356426     -0.143642     -0.144484
Au      8.64366      7.64032      9.81183        -0.295736     -0.307587      0.001717
Au      6.71008      5.65316      9.37816         0.101092      0.083332     -0.024589
Au      7.39180      7.22659      6.98745        -0.029177     -0.089587     -0.213034
Au      6.60442      9.90821      6.71999        -0.041796     -0.000614     -0.137597
Au     14.86034      8.70900      7.77361         0.178255     -0.086717     -0.103333
Au     11.04181      9.77997      5.21962         0.009254      0.007810     -0.196802
Au     15.81272      6.84070      9.61025         0.038343     -0.070419      0.008871
Au     13.16006      8.14786     10.02304         0.459145     -0.157916     -0.090218
Au      9.99223      7.08811      5.68416        -0.027584     -0.028046     -0.045716
Au     11.52060      4.44655      9.06874         0.087636     -0.139329     -0.044880
Au     11.69956      5.13652      6.41499         0.053289     -0.036529      0.031941
Au     13.76738      6.01575      7.98299         0.112604     -0.163388     -0.046428
Au     11.10870      7.30964      8.38115         0.101321     -0.360453     -0.315530
Au     12.78355      7.83464      6.07233         0.103542     -0.114386     -0.184609
Au      9.35896      9.27467      7.54678        -0.119054     -0.064071     -0.487624
Au      9.11631      5.28194      7.83064         0.042641     -0.147971     -0.117043
Au      5.19525     13.75355      9.25480        -0.149779      0.115585     -0.004007
Au      6.97905     12.56993      7.44364        -0.210665      0.255211     -0.302515
Au      4.89105     10.95922      8.53647        -0.135125      0.058173     -0.002921
Au      7.67542     10.38224      9.44636        -0.355135      0.047186     -0.075803
Au      7.39547     15.21907      8.24506         0.031265      0.036004      0.023239
Au      7.92760     13.14794     10.17283        -0.227906      0.509364     -0.071293
Au      8.85202     11.49654      5.66204         0.009909      0.019170     -0.132702
Au     11.56928     12.36427      6.29454        -0.039270      0.043244     -0.199053
Au     12.39175     12.99371      8.91698         0.190236      0.317669     -0.142003
Au     10.18295     14.73029      9.08275        -0.133954      0.227778     -0.024196
Au      9.79700     11.87357      8.47248         0.091340      0.318378     -0.353492
Au     14.57263     11.35557      8.73211         0.122258     -0.090124     -0.009281
Au     12.03523     10.04437      8.22525         0.304410      0.197738     -0.331187
Au     13.68781     10.58210      6.05624        -0.121539     -0.049650      0.166651
Au      9.32621     14.03251      6.56776        -0.058066      0.080222     -0.012165
Au      7.34232      9.78926     14.48574        -0.213287     -0.006079      0.350134
Au      3.95922      9.41619     10.79829        -0.192499      0.020661     -0.015836
Au      4.91146      6.83831     11.23412        -0.041257      0.014234     -0.022096
Au      6.79999      8.94817     11.65293        -0.433477     -0.291580      0.205537
Au      8.31704      7.16928     14.90467         0.087244      0.071775     -0.072996
Au      5.68708      7.56996     13.90140        -0.026985      0.028957      0.030230
Au      7.49674      6.21380     12.20042        -0.252597     -0.272193      0.148574
Au     10.38131      9.68450     10.40943         0.108486      0.039160     -0.042817
Au      9.03861      4.61807     10.54432         0.055540     -0.243428     -0.027619
Au     14.13609      7.43518     14.79341         0.033318     -0.053396     -0.031526
Au     15.66326      9.46646     10.53416         0.214204     -0.050323      0.025967
Au     13.68105      5.23197     10.67140         0.213322     -0.230317      0.000784
Au     12.74741      5.60389     13.28737         0.117656     -0.109768      0.053954
Au     12.34656      8.47748     12.63745         0.293380     -0.179152      0.348646
Au     14.99522      7.17423     12.20494         0.140886     -0.136843      0.054157
Au      9.86371      5.39671     13.38189         0.094709     -0.207176      0.106424
Au     14.86263      9.79608     13.22159         0.197487     -0.028040      0.135176
Au     12.77568      9.71419     15.25574         0.002714      0.001423      0.059268
Au     11.00611      6.63760     11.06367         0.054429     -0.515902      0.126863
Au     11.43638      3.77688     11.72347         0.066749     -0.063781     -0.001149
Au      9.47805      8.42750     12.68079        -0.210095     -0.226667      0.292143
Au     11.19967      7.24752     14.99475         0.116034     -0.079910      0.132658
Au      9.88197      9.57590     15.55033         0.093896      0.026935      0.210432
Au      6.45548     12.43513     13.91631        -0.123128      0.071273      0.041767
Au      8.45711     11.11965     12.13374        -0.271205      0.124861      0.210190
Au      3.15002     12.10110     10.33174         0.112602      0.038877      0.056857
Au      5.97052     14.48495     11.92149        -0.142005      0.123034      0.022600
Au      8.56540     14.06649     12.89882        -0.063027      0.396055      0.204058
Au      3.91089     12.81894     12.94847         0.064396     -0.007526     -0.115813
Au      4.73754     10.15038     13.47496        -0.159724      0.051661      0.098342
Au      5.82973     11.60971     11.20481        -0.507250      0.139708      0.110193
Au      8.15462     15.93551     10.85623         0.010908      0.017210     -0.050590
Au     11.20624     13.71766     13.75815         0.073369      0.078108      0.082832
Au     13.09061     13.79973     11.52675         0.062677      0.137907      0.145420
Au     11.50825     12.01718     15.89060         0.028422      0.017175      0.063358
Au     12.83976     10.80341     10.99189         0.399132      0.286752     -0.007433
Au     10.80797     15.43072     11.66457        -0.053744      0.083147     -0.000334
Au     10.99997     10.82277     13.18968         0.150956      0.190896      0.442400
Au     15.26522     12.07045     11.47999        -0.178232     -0.105884     -0.036490
Au      8.97437     12.14419     14.87010         0.033142      0.068662      0.122421
Au     10.55250     12.58631     11.06998         0.210717      0.431730      0.059143
Au     13.53468     12.13169     13.79227         0.105506      0.100277      0.132606
