38
# total energy = -101.50747328 eVAu     14.01385     14.08256     11.62712        -0.013525     -0.121199      0.029925
Au     12.89666     12.01565     13.06702         0.034367     -0.009859      0.043092
Au     11.70694     14.59799     13.49406         0.003147      0.000798      0.053884
Au     15.65338     12.05862     12.86798        -0.114019      0.064554     -0.034653
Au     19.25340     14.99536     12.90993         0.032166     -0.001160     -0.041019
Au     16.89123     14.27901     14.58654        -0.133969      0.145205      0.044401
Au     18.40154     12.34348     12.93365         0.050000      0.039981     -0.057137
Au     16.87891     14.23395     11.49634        -0.038870      0.042594      0.030724
Au     12.84852     16.64036     11.96288        -0.137571      0.011687      0.004183
Au     12.94779     19.12911     13.18977         0.040693     -0.052605      0.019418
Au     17.80849     19.41831     13.14627        -0.092954      0.007627      0.015330
Au     15.20262     16.24474     10.39376         0.056982     -0.005823      0.125125
Au     15.16507     16.22114     13.37298         0.095946     -0.073602      0.191371
Au     17.65014     16.94340     11.55226        -0.001438     -0.060054      0.074169
Au     15.34503     18.59756     11.85184         0.048922      0.097860      0.045714
Au     19.93863     17.62387     13.02462         0.063013      0.014619     -0.004090
Au     14.10836     14.81020     18.46268        -0.051595      0.005216     -0.006528
Au     14.11535     14.01734     14.81197         0.087909      0.025313      0.000467
Au     13.13820     12.40641     17.54158         0.032293      0.038664      0.003633
Au     11.45069     12.40710     15.33685         0.039051     -0.031154     -0.077222
Au     14.44313     11.28040     15.33878         0.055086     -0.035065      0.012036
Au     11.99169     14.87403     16.50940        -0.020045      0.020367      0.033125
Au     17.21571     11.56616     15.30762        -0.012151     -0.004573      0.043781
Au     18.02732     14.99827     17.26385         0.016789     -0.040761     -0.061095
Au     15.92629     13.11543     17.19569        -0.101591      0.029947     -0.024501
Au     19.43143     13.48466     15.34948        -0.039398     -0.044773      0.024506
Au     12.02871     17.03883     14.78398         0.087709      0.058755      0.007908
Au     13.13571     17.22169     17.50587        -0.098435     -0.144426      0.013969
Au     13.02266     19.43230     15.95905         0.065990     -0.002484     -0.139753
Au     18.23867     17.81473     17.26271         0.051135      0.102726     -0.045683
Au     17.48725     20.29395     16.10097        -0.011674     -0.056286      0.065374
Au     19.95789     16.19794     15.50883        -0.022568      0.036003      0.006966
Au     15.47560     18.80465     17.29885        -0.010512      0.042335     -0.107015
Au     16.25241     16.52310     18.76574         0.039731     -0.001251      0.091534
Au     19.80797     19.15378     15.26125         0.050927     -0.097165      0.013864
Au     17.43718     17.12630     14.63213        -0.105500     -0.047369     -0.072519
Au     15.39481     19.39608     14.51888        -0.054906      0.184996     -0.007993
Au     15.34788     16.09557     16.21220         0.108864     -0.139639     -0.315290
