38
# total energy = -101.59278984 eVAu     13.98315     14.04208     11.64896        -0.012900      0.001624      0.015868
Au     12.89393     11.96364     13.08335         0.003648      0.001951      0.044423
Au     11.67172     14.57597     13.57470         0.024272     -0.076852      0.005886
Au     15.64701     12.07973     12.88217        -0.030688     -0.043433      0.011328
Au     19.30864     14.98548     12.90215         0.027046      0.000723      0.021107
Au     16.90102     14.31866     14.55520        -0.000086      0.038622     -0.021293
Au     18.40972     12.35778     12.90258         0.013230      0.002533      0.030515
Au     16.86442     14.23687     11.51946         0.004081      0.034343     -0.022354
Au     12.73870     16.57756     11.98139        -0.008287     -0.016573      0.042618
Au     13.01925     19.05323     13.17400         0.048319     -0.014555     -0.011879
Au     17.85297     19.46818     13.18511         0.030972      0.018836      0.083972
Au     15.18766     16.26185     10.52901        -0.034037      0.056558      0.018447
Au     15.08482     16.21468     13.40402        -0.033732     -0.002752      0.016580
Au     17.67489     16.92192     11.62558        -0.008408      0.011261     -0.043212
Au     15.44782     18.64873     11.93470         0.036885      0.006899      0.042103
Au     19.99492     17.62532     13.01763        -0.017118      0.010693      0.014521
Au     14.10094     14.84032     18.44857        -0.054903     -0.007105     -0.020650
Au     14.12928     13.96734     14.82468        -0.034118     -0.031858      0.002613
Au     13.14513     12.42474     17.52106        -0.009800      0.015695     -0.011991
Au     11.43975     12.35213     15.33387        -0.014889     -0.031975     -0.012931
Au     14.48184     11.22587     15.35358         0.003591      0.007944     -0.011146
Au     11.93910     14.84482     16.47537         0.027949     -0.008054      0.047518
Au     17.23714     11.61143     15.31618        -0.016131     -0.004011     -0.016873
Au     18.02644     14.96189     17.24004         0.027735     -0.024747      0.010261
Au     15.89191     13.11974     17.19446         0.009078      0.030230      0.004425
Au     19.42234     13.45962     15.35014         0.002879      0.021475     -0.038800
Au     11.91545     17.07040     14.78724         0.115357     -0.005151     -0.043674
Au     13.07594     17.17734     17.43028         0.014151      0.024085     -0.020781
Au     13.06209     19.40982     15.89692        -0.026668      0.044948     -0.007347
Au     18.25385     17.79131     17.22024         0.017924      0.020866     -0.006925
Au     17.53656     20.28150     16.15827        -0.002489     -0.019108     -0.061613
Au     19.92863     16.19735     15.49439         0.014618     -0.029405     -0.051122
Au     15.46298     18.74663     17.18518         0.024102      0.063011     -0.033506
Au     16.28996     16.52085     18.74613        -0.041369     -0.012864      0.014515
Au     19.84901     19.12843     15.26181         0.012272     -0.027996      0.039187
Au     17.38701     17.15830     14.57594        -0.004367     -0.011026     -0.005280
Au     15.40638     19.79575     14.48643        -0.071251      0.007676     -0.009315
Au     15.37473     16.06680     16.18461        -0.036865     -0.052512     -0.015196
