38
# total energy = -101.90954818 eVAu     13.74849     11.90881     13.64958         0.013326      0.022951      0.020745
Au     13.91021     15.39977     10.53553         0.020755      0.005363      0.013477
Au     11.19266     15.89391     14.48470         0.025025      0.006044      0.016982
Au     12.61222     14.30443     12.64306         0.001185     -0.027013     -0.004177
Au     16.58127     12.17318     14.14518         0.001070     -0.007904      0.012414
Au     19.25870     16.02570     14.55516        -0.003045     -0.011230     -0.002101
Au     16.67072     15.39343     10.60837         0.032230      0.012746      0.003760
Au     15.22957     15.77992     13.32302        -0.018045      0.009139     -0.037832
Au     17.89251     14.26107     12.80240         0.030825     -0.004228      0.011436
Au     15.35981     13.26254     11.85674         0.008245      0.039785      0.023445
Au     12.80846     17.13859     12.39408        -0.018395     -0.004800      0.032696
Au     11.95659     18.55631     14.55848         0.039641     -0.009900     -0.008319
Au     17.02699     19.71649     12.55960         0.027002      0.002993      0.002694
Au     16.79860     17.77555     14.74639        -0.084641     -0.005767     -0.073588
Au     14.43058     19.22231     13.51084        -0.014097      0.010651     -0.017225
Au     18.06117     17.10773     12.21441         0.041587     -0.029464      0.021396
Au     15.38274     17.79495     11.30669        -0.009623      0.017413     -0.024547
Au     19.29572     18.77649     14.13181        -0.030767     -0.013796      0.020701
Au     14.10313     14.14358     15.32737        -0.006867     -0.033028      0.013700
Au     12.74219     12.68175     17.34539         0.021521     -0.004831      0.012106
Au     11.50098     13.07364     14.84279         0.007491      0.013351     -0.015556
Au     13.33151     15.23881     18.25121         0.010230      0.025349     -0.004962
Au     10.79321     14.66242     17.00937         0.025578     -0.020677     -0.007963
Au     18.14039     14.28244     17.84626         0.004431      0.012712     -0.035593
Au     15.45124     13.41722     17.94925        -0.051499     -0.034407      0.007964
Au     16.69458     15.11109     15.62744        -0.035072      0.002299     -0.013096
Au     16.05092     16.12111     18.43378         0.052016      0.016056     -0.020650
Au     14.84120     11.32415     16.15980        -0.001035      0.000143      0.011950
Au     17.47694     11.72665     16.85665         0.004153      0.026664      0.012747
Au     18.93542     13.39876     15.23927        -0.035235      0.013743     -0.024968
Au     13.92265     19.57801     16.23412         0.050074      0.008736     -0.018030
Au     11.73451     17.23690     16.94164         0.003084      0.018607      0.012211
Au     13.93512     17.92032     18.49382         0.009670      0.021249      0.040624
Au     18.85795     19.73287     16.65855        -0.018008     -0.011760     -0.001508
Au     16.44892     20.50748     15.21103         0.015258      0.003938      0.029619
Au     16.36465     18.82966     17.50531        -0.026738     -0.000812      0.059237
Au     18.45427     16.97527     17.13619         0.003189     -0.002576     -0.046090
Au     14.39877     16.86192     15.82573        -0.094519     -0.067740     -0.023697
