38
# total energy = -101.53284643 eVAu     12.79865     14.36319     11.89044         0.075244      0.201391      0.007025
Au     12.70436     11.77683     12.69402        -0.016632     -0.012281      0.082377
Au     11.32444     13.77584     14.37541         0.059167      0.157918     -0.005863
Au     17.44847     11.70883     13.27847        -0.088626      0.191882      0.061003
Au     14.93445     10.86492     14.14949         0.006117      0.068283      0.007916
Au     20.07659     15.50077     12.77793        -0.048320     -0.000202      0.019485
Au     16.47081     14.88566     14.11101         0.037790     -0.001029     -0.014288
Au     15.42520     15.50117     11.14097         0.035901     -0.018725      0.047704
Au     17.83999     14.05220     11.79209        -0.158332      0.120644      0.147510
Au     15.21808     12.88588     12.11673         0.011688      0.142214     -0.158297
Au     12.98495     16.99026     11.03106         0.055943     -0.151732      0.114052
Au     11.25736     16.37723     13.33179         0.182112     -0.161966      0.035743
Au     14.05848     16.25043     13.71916        -0.134934     -0.065111     -0.048822
Au     12.70051     18.78162     13.15825         0.070599     -0.084085      0.079768
Au     17.53258     19.62790     12.85661        -0.088349     -0.067823     -0.030526
Au     14.94003     20.21943     13.92499         0.019757     -0.152705      0.007736
Au     17.72123     16.86476     12.06130        -0.161926     -0.009261     -0.219674
Au     15.27566     18.31555     11.80225         0.136717     -0.056206      0.028726
Au     19.90334     18.23965     13.23217         0.094703      0.024855     -0.033342
Au     14.08997     13.55331     14.86081         0.184243      0.063677     -0.063867
Au     12.40092     13.39067     17.10878         0.064442      0.155547      0.002153
Au     12.05439     11.26209     15.33954        -0.074645     -0.134588      0.010073
Au     13.29651     15.64747     18.51073         0.096311     -0.130461     -0.185152
Au     17.74995     14.66888     17.04548        -0.006059     -0.002733     -0.062612
Au     15.20709     13.50125     18.00679         0.069163      0.201625     -0.009337
Au     14.35465     11.18606     16.88517        -0.068540      0.006540     -0.050395
Au     16.69657     12.35685     15.87156         0.126594      0.098905      0.136803
Au     18.95430     13.65327     14.62180        -0.203634      0.137333      0.031225
Au     12.11071     15.98128     15.98239        -0.090406      0.081652      0.046578
Au     13.50332     18.46683     15.78448        -0.162231      0.083103      0.074139
Au     17.46257     17.53284     17.35635         0.075425     -0.036324     -0.124887
Au     18.54115     19.26665     15.41828        -0.050373     -0.081869      0.063377
Au     15.97244     19.84982     16.54740        -0.003751     -0.142514     -0.055958
Au     14.70255     18.06514     18.24206        -0.007959     -0.056240     -0.121561
Au     18.95225     16.42402     15.18728         0.025060     -0.077015      0.261598
Au     16.29529     17.74123     14.58277         0.060194     -0.091388     -0.036895
Au     16.16843     15.85078     19.11552        -0.048890     -0.112610     -0.154170
Au     15.08662     15.88252     16.33064        -0.073562     -0.088703      0.110657
