19
# total energy = -47.07212827 eVAu     14.45002     12.68055     13.51228         0.253440      0.373954      0.285923
Au     12.27403     14.09498     14.34183        -0.117995     -0.126590     -0.091269
Au     16.69602     16.91439     12.47368        -0.091042     -0.188655      0.001089
Au     16.78621     14.36940     13.52943        -0.088057     -0.236740     -0.028157
Au     18.70320     16.27321     14.27255        -0.008037      0.082970     -0.036778
Au     12.12265     16.77194     13.66478        -0.291849      0.077018     -0.071417
Au     14.23213     15.35534     12.60291         0.221869     -0.098942      0.002953
Au     14.46618     18.10400     13.45896         0.036444      0.147903      0.068477
Au     11.14022     16.06372     16.11287        -0.110463      0.208581      0.006790
Au     14.78646     15.03165     15.45617         0.087733     -0.289558     -0.069071
Au     16.39375     17.45720     15.35052         0.035422      0.068324     -0.014791
Au     17.54880     15.02200     16.44219        -0.094428      0.027918     -0.016954
Au     15.56906     16.59619     17.82045        -0.180990     -0.156191     -0.060410
Au     13.09959     15.13015     17.77256         0.281539      0.077697      0.235428
Au     11.10474     13.41296     16.82507        -0.450037     -0.041608      0.054694
Au     13.56420     17.45736     16.06528         0.002697      0.328712     -0.013065
Au     15.55769     13.83014     18.05962        -0.076748     -0.168157     -0.040395
Au     13.56416     12.47486     16.35657         0.519623      0.016260     -0.226220
Au     16.27469     12.58849     15.63595         0.070881     -0.102896      0.013173
