19
# total energy = -47.23093012 eVAu     14.05381     13.87877     13.24530        -0.027014      0.060540      0.031000
Au     11.32991     14.39431     13.02009        -0.060961     -0.013801      0.012472
Au     16.51418     18.62935     11.90959        -0.033383     -0.008613     -0.001970
Au     15.63092     15.96444     12.07107        -0.042585     -0.041526      0.060425
Au     17.52627     16.92335     13.92140        -0.048793      0.006148     -0.000406
Au     11.46338     17.28787     13.25740         0.058962      0.101607     -0.023794
Au     12.98865     15.82211     11.37793         0.030585     -0.000183     -0.014968
Au     16.69026     14.30827     14.10536        -0.067176     -0.023093     -0.002942
Au     13.83135     18.32512     12.27204         0.013779     -0.033698     -0.003775
Au     11.74800     17.24252     16.31551         0.000748     -0.027458     -0.007882
Au     13.87830     16.42924     14.52785         0.120823      0.008717      0.003668
Au     15.61641     18.79815     14.56443        -0.016514      0.019429      0.032930
Au     16.16426     16.29171     16.22821        -0.018174      0.008245      0.006417
Au     14.28768     18.37081     16.94896         0.003882     -0.020609     -0.014845
Au     13.76740     15.74863     17.60339         0.027073     -0.005976     -0.025338
Au      9.82160     15.84671     14.87818         0.074067     -0.052897     -0.005922
Au     12.87354     19.26369     14.71950        -0.065024      0.005958     -0.016111
Au     14.81188     13.76244     15.98932         0.117967     -0.031685      0.013120
Au     12.18894     14.42820     15.64490        -0.068264      0.048896     -0.042081
