19
# total energy = -47.05744383 eVAu     17.94522     17.26765     12.71145        -0.005444      0.023474      0.006190
Au     18.52045     14.61432     11.94079        -0.014497      0.001851      0.004180
Au     16.12386     13.29568     12.35948        -0.029109      0.013898     -0.031608
Au     13.57443     16.25879     11.73272         0.009335     -0.040243     -0.014129
Au     16.19226     15.74053     10.95574        -0.028566     -0.031700     -0.005043
Au     13.50569     13.81285     13.13570         0.009823      0.008558     -0.040233
Au     15.48843     18.26125     11.87404        -0.018874      0.041929     -0.089831
Au     13.58564     14.81252     15.87097         0.014783     -0.011561      0.016817
Au     17.85307     13.96778     14.60589        -0.005479     -0.008723      0.023465
Au     11.89355     15.92695     13.90563         0.015421     -0.004091     -0.004347
Au     15.58037     15.78477     13.83777        -0.004973     -0.005914     -0.014048
Au     15.33760     12.84673     14.98103        -0.022654     -0.096704     -0.010248
Au     13.67703     18.11317     13.97723         0.017268      0.018863     -0.001285
Au     15.12837     17.26373     16.39210        -0.023752     -0.024460     -0.045245
Au     12.36710     17.28110     16.28955         0.030942      0.045474      0.081942
Au     16.24154     14.75585     16.75478         0.015379     -0.013743      0.067270
Au     16.35409     18.79297     14.43769         0.018267      0.062816      0.021856
Au     17.79380     16.73616     15.60207        -0.013287     -0.026896     -0.047873
Au     19.88432     15.79247     14.05978         0.035418      0.047173      0.082170
