19
# total energy = -47.28883199 eVAu     14.56404     13.55275     12.93465         0.022649     -0.103065     -0.045227
Au     12.21550     14.84626     13.44090        -0.046113      0.025187      0.020335
Au     16.30544     17.92927     12.05500         0.105040     -0.022629      0.060456
Au     16.79154     15.26294     12.89007         0.059462      0.048748     -0.033990
Au     18.60027     17.32132     13.54747        -0.077119      0.012643     -0.035808
Au     11.76968     17.28032     12.14548         0.046247     -0.031805      0.061594
Au     14.27200     16.07908     11.82753        -0.061624     -0.005838     -0.014783
Au     13.94704     18.56170     13.33852        -0.064309      0.003479     -0.009692
Au     11.89396     17.30264     14.93586        -0.038168     -0.036170     -0.021072
Au     14.72415     16.08976     14.73740         0.062737     -0.021936      0.049455
Au     16.37222     18.46538     14.83917         0.064523      0.020638     -0.052579
Au     17.50813     15.90024     15.64751        -0.025108      0.023603     -0.044863
Au     15.85744     17.34338     17.38448        -0.038241     -0.035791      0.002959
Au     13.25973     16.20148     17.21878        -0.021653      0.102228      0.026181
Au     11.15543     14.84093     16.02171         0.134842      0.024847     -0.011994
Au     13.88228     18.76113     16.10415        -0.001846      0.089105      0.071169
Au     15.57001     14.60825     17.35364        -0.078737     -0.026189      0.027432
Au     13.60193     13.58738     15.62801         0.000688     -0.072228     -0.079236
Au     16.37013     13.42813     15.00175        -0.043270      0.005174      0.029665
