19
# total energy = -47.24806264 eVAu     14.53535     12.78684     13.61765         0.037708     -0.030474     -0.009379
Au     12.21881     14.10098     14.31427         0.017240     -0.000403      0.012861
Au     16.62036     16.81962     12.47920        -0.019852     -0.039974      0.018791
Au     16.87018     14.27288     13.53071         0.006087     -0.008401      0.016993
Au     18.67844     16.29214     14.25574        -0.006002      0.030981     -0.013623
Au     12.06221     16.78118     13.63612        -0.031551      0.086357      0.000008
Au     14.23908     15.38338     12.63532         0.000129     -0.050537     -0.009647
Au     14.44378     18.15446     13.46949        -0.023459      0.034095     -0.017050
Au     11.16598     16.13937     16.14431        -0.005939      0.011477      0.018135
Au     14.78763     14.99673     15.44332         0.009621      0.012167     -0.000675
Au     16.37817     17.47747     15.34618        -0.035840      0.001955     -0.008244
Au     17.50355     15.03702     16.42520         0.036120      0.017853      0.004075
Au     15.49808     16.52119     17.78232        -0.018577     -0.002186      0.014097
Au     13.10994     15.12335     17.81609         0.006289     -0.021057      0.002727
Au     11.07905     13.45030     16.81207        -0.014286      0.038283     -0.029326
Au     13.55993     17.53439     16.03790         0.041811      0.002574     -0.005329
Au     15.54247     13.73222     18.03273        -0.004979     -0.019926      0.017605
Au     13.62372     12.51198     16.29920         0.014645     -0.038728     -0.012836
Au     16.41710     12.51304     15.67586        -0.009166     -0.024056      0.000817
