58
# total energy = -160.84744030 eVAu     10.11687     13.73682     12.73012         0.007723      0.016401      0.024171
Au     11.79691     14.03779     10.44461        -0.073275     -0.057580     -0.047984
Au     11.99838     11.66713     11.99029        -0.028178      0.064761     -0.089034
Au     12.49031     15.62379     12.84995         0.001940      0.120845      0.040666
Au     16.93370     12.57089     12.25230        -0.029607      0.081545      0.088215
Au     14.21810     13.56668     12.00889         0.033306      0.112694      0.025459
Au     16.84389     14.64856     10.27251        -0.054652      0.044495      0.026601
Au     15.42727     12.26523      9.86878        -0.006333     -0.001874     -0.093661
Au     17.93602     15.17799     12.80893         0.190224     -0.117177     -0.106398
Au     14.21233     14.74899      9.31266        -0.027492      0.009195     -0.060415
Au     14.67134     10.78926     12.12431         0.007031     -0.033266     -0.046109
Au     10.12599     16.13871     11.32242        -0.097169      0.039131     -0.066548
Au      9.81334     16.28711     14.05261         0.040016     -0.009620      0.030171
Au     11.37434     18.28907     12.64772         0.094403     -0.021492      0.031038
Au     12.97446     20.10641     14.10562         0.016065     -0.115102     -0.036234
Au     12.54890     16.85957     10.20394         0.036726      0.054688      0.017434
Au     13.68526     19.13988     11.34889        -0.043794      0.038680     -0.020371
Au     17.74317     17.18129     10.77962         0.000040     -0.030535      0.100856
Au     18.77044     19.63071     11.53319         0.070868     -0.035259      0.045506
Au     15.13656     21.13707     12.65948        -0.097466     -0.054170     -0.038207
Au     19.21522     17.55885     13.39899        -0.034052      0.067017     -0.033536
Au     15.19443     17.36685      9.44216        -0.090750     -0.112636      0.024732
Au     16.27547     19.72645     10.38811        -0.127726      0.017212      0.024790
Au     17.70827     21.09667     13.69937        -0.076561      0.056139      0.086686
Au     16.40953     18.62355     12.96153        -0.050936     -0.074581      0.079724
Au     15.16088     16.26889     12.01535         0.084275     -0.054839      0.006457
Au     20.28605     20.09979     13.82295         0.007650     -0.037408      0.027066
Au     12.31494     15.66523     15.69592        -0.012357      0.102012      0.016894
Au     13.21018     12.50483     19.05978        -0.040361      0.047267      0.031973
Au      9.97165     13.85766     15.62115        -0.017024      0.051282     -0.007257
Au     13.06448     10.40628     14.40531         0.040525      0.001131      0.009367
Au     12.71190     13.21985     14.41122         0.118575      0.000686     -0.047334
Au     10.46035     11.44835     14.31035        -0.107673     -0.025208      0.009570
Au     11.32929     14.40715     18.16195        -0.020816      0.025641      0.004731
Au     11.65510     11.89491     16.78859        -0.050845      0.090853      0.034223
Au     14.26716     13.70952     16.78371         0.079930     -0.022916      0.035556
Au     19.26900     15.58646     15.29708         0.027671     -0.080796     -0.018830
Au     15.81936     13.57025     19.20759         0.032467      0.066482     -0.005756
Au     14.22072     10.84386     16.95890         0.008343      0.025133     -0.008496
Au     13.64561     15.33525     19.49305        -0.050176      0.090736     -0.056288
Au     15.52084     11.74481     14.59984         0.216095     -0.130794      0.007818
Au     15.08683     14.89408     14.44769         0.064528     -0.196197     -0.133633
Au     17.24222     14.71756     17.05313         0.170120     -0.101369      0.193686
Au     16.75601     11.98844     17.11182        -0.011387      0.071027     -0.079692
Au     17.84409     13.21700     14.78433        -0.128533      0.044930      0.031096
Au     11.24342     18.36569     15.49776         0.124923     -0.019980     -0.034733
Au      9.75807     16.35684     16.80442        -0.099588     -0.009393      0.005329
Au     11.93962     17.24040     18.18599         0.099219      0.042629     -0.023966
Au     18.37701     19.32510     15.77691        -0.032616     -0.028572     -0.058612
Au     14.67710     16.50211     16.94688         0.074830      0.017787      0.076555
Au     16.80714     16.99179     15.13542         0.124008     -0.096091      0.056175
Au     15.59421     20.27628     15.33395         0.006865      0.071088     -0.015977
Au     18.53503     17.14001     17.50222         0.006537      0.049959      0.015334
Au     14.10380     17.57585     14.32716        -0.155107      0.104106      0.022047
Au     14.28107     18.11317     19.32206        -0.053107      0.018951     -0.042114
Au     13.52332     19.29950     16.86112        -0.080798     -0.106370     -0.027311
Au     16.42288     16.34818     19.20809         0.031289     -0.066433     -0.054637
Au     16.33982     18.89358     17.63324        -0.117810     -0.004844      0.023206
