40
# total energy = -171.73090479 eVO      1.06113      2.45830      2.39348         0.005212     -0.029871     -0.308545
O      1.06113      7.71830      0.47448         0.005212     -0.029871     -0.308545
O      7.47463      2.45830      0.47448         0.005212     -0.029871     -0.308545
O      7.47463      7.71830      2.39348         0.005212     -0.029871     -0.308545
O     11.76587      8.06170      2.39348        -0.005212      0.029871     -0.308545
O     11.76587      2.80170      0.47448        -0.005212      0.029871     -0.308545
O      5.35237      8.06170      0.47448        -0.005212      0.029871     -0.308545
O      5.35237      2.80170      2.39348        -0.005212      0.029871     -0.308545
O      4.26788      0.17170      3.35298         0.005212      0.029871     -0.308545
O      4.26788      5.43170      1.43398         0.005212      0.029871     -0.308545
O     10.68138      0.17170      1.43398         0.005212      0.029871     -0.308545
O     10.68138      5.43170      3.35298         0.005212      0.029871     -0.308545
O      2.14562      5.08830      3.35298        -0.005212     -0.029871     -0.308545
O      2.14562     10.34830      1.43398        -0.005212     -0.029871     -0.308545
O      8.55912      5.08830      1.43398        -0.005212     -0.029871     -0.308545
O      8.55912     10.34830      3.35298        -0.005212     -0.029871     -0.308545
O     -0.00000      0.00000      3.14609        -0.000000      0.000000      0.374196
O     -0.00000      5.26000      1.22709        -0.000000      0.000000      0.374196
O      6.41350      0.00000      1.22709        -0.000000      0.000000      0.374196
O      6.41350      5.26000      3.14609        -0.000000      0.000000      0.374196
O      3.20675      2.63000      0.26759        -0.000000      0.000000      0.374196
O      3.20675      7.89000      2.18659        -0.000000      0.000000      0.374196
O      9.62025      2.63000      2.18659        -0.000000      0.000000      0.374196
O      9.62025      7.89000      0.26759        -0.000000      0.000000      0.374196
Au     12.23132      1.40952      1.90004         0.111157     -0.234619      0.121447
Au     12.23132      6.66952     -0.01896         0.111157     -0.234619      0.121447
Au      5.81782      1.40952     -0.01896         0.111157     -0.234619      0.121447
Au      5.81782      6.66952      1.90004         0.111157     -0.234619      0.121447
Au      0.59568      9.11048      1.90004        -0.111157      0.234619      0.121447
Au      0.59568      3.85048     -0.01896        -0.111157      0.234619      0.121447
Au      7.00918      9.11048     -0.01896        -0.111157      0.234619      0.121447
Au      7.00918      3.85048      1.90004        -0.111157      0.234619      0.121447
Au      2.61107      1.22048      2.85954         0.111157      0.234619      0.121447
Au      2.61107      6.48048      0.94054         0.111157      0.234619      0.121447
Au      9.02457      1.22048      0.94054         0.111157      0.234619      0.121447
Au      9.02457      6.48048      2.85954         0.111157      0.234619      0.121447
Au      3.80243      4.03952      2.85954        -0.111157     -0.234619      0.121447
Au      3.80243      9.29952      0.94054        -0.111157     -0.234619      0.121447
Au     10.21593      4.03952      0.94054        -0.111157     -0.234619      0.121447
Au     10.21593      9.29952      2.85954        -0.111157     -0.234619      0.121447
