56
# total energy = -353.18534543 eVH      5.17144      2.29602      4.06215        -0.066978      0.007959      0.022766
H      6.56101      1.98318      5.09940         0.011303     -0.031367     -0.024426
H      3.07552      1.99796      4.86029        -0.005924      0.005243     -0.015257
H      2.78170      1.28497      6.43511         0.012468     -0.016033     -0.002373
H      5.20990      5.57177      1.56403         0.066978      0.007959     -0.022766
H      3.82033      5.25893      0.52678        -0.011303     -0.031367      0.024426
H      0.38493      5.27371      0.77314         0.005924      0.005243      0.015257
H      0.67875      4.56072     10.47242        -0.012468     -0.016033      0.002373
H      1.74945      4.25548      7.20470         0.066978     -0.007959     -0.022766
H      0.35989      4.56832      6.16745        -0.011303      0.031367      0.024426
H      3.84538      4.55354      6.40656         0.005924     -0.005243      0.015257
H      4.13920      5.26653      4.83174        -0.012468      0.016033      0.002373
H      1.71099      0.97973      9.70282        -0.066978     -0.007959      0.022766
H      3.10056      1.29257     10.74007         0.011303      0.031367     -0.024426
H      6.53597      1.27779     10.49372        -0.005924     -0.005243     -0.015257
H      6.24215      1.99078      0.79443         0.012468      0.016033     -0.002373
C      5.31551      1.10416      7.19837         0.017701      0.008241     -0.001405
C      4.75462      1.57083      5.93274        -0.004610      0.017171     -0.059847
C      5.06583      4.37991      9.70191        -0.017701      0.008241      0.001405
C      5.62672      4.84658     10.96754         0.004610      0.017171      0.059847
C      1.60539      5.44734      4.06849        -0.017701     -0.008241      0.001405
C      2.16628      4.98067      5.33412         0.004610     -0.017171      0.059847
C      1.85506      2.17159      1.56494         0.017701     -0.008241     -0.001405
C      1.29417      1.70492      0.29931        -0.004610     -0.017171     -0.059847
N      6.69425      0.94699      7.42764        -0.074826      0.014001      0.020757
N      4.45004      0.83174      8.28535         0.033441      0.006578     -0.037539
N      5.55258      1.96733      4.95181         0.060486      0.016497     -0.039281
N      3.43764      1.66345      5.75427         0.025766     -0.031423      0.057961
N      3.68710      4.22274      9.47264         0.074826      0.014001     -0.020757
N      5.93130      4.10749      8.61493        -0.033441      0.006578      0.037539
N      4.82876      5.24308      0.67437        -0.060486      0.016497      0.039281
N      0.02281      4.93920     11.15325        -0.025766     -0.031423     -0.057961
N      0.22665      5.60451      3.83921         0.074826     -0.014001     -0.020757
N      2.47085      5.71976      2.98150        -0.033441     -0.006578      0.037539
N      1.36831      4.58417      6.31505        -0.060486     -0.016497      0.039281
N      3.48326      4.88805      5.51258        -0.025766      0.031423     -0.057961
N      3.23380      2.32876      1.79421        -0.074826     -0.014001      0.020757
N      0.98960      2.44401      2.65193         0.033441     -0.006578     -0.037539
N      2.09213      1.30842     10.59248         0.060486     -0.016497     -0.039281
N     -0.02281      1.61230      0.12085         0.025766      0.031423      0.057961
O      0.17577      0.37950      8.48257         0.007345      0.032380     -0.016377
O      0.58640      1.32359      6.54512        -0.013961     -0.004706      0.028482
O      3.30454      0.37850      8.03908         0.004245      0.038472      0.007961
O      4.81417      1.07398      9.46055        -0.000698     -0.029014     -0.005505
O      3.28467      3.65525      8.42496        -0.007345      0.032380      0.016377
O      2.87405      4.59934     10.36241         0.013961     -0.004706     -0.028482
O      0.15591      3.65425      8.86845        -0.004245      0.038472     -0.007961
O      5.56718      4.34973      7.43973         0.000698     -0.029014      0.005505
O      6.74512      6.17200      2.78428        -0.007345     -0.032380      0.016377
O      6.33450      5.22791      4.72173         0.013961      0.004706     -0.028482
O      3.61635      6.17300      3.22777        -0.004245     -0.038472     -0.007961
O      2.10673      5.47752      1.80630         0.000698      0.029014      0.005505
O      3.63622      2.89625      2.84189         0.007345     -0.032380     -0.016377
O      4.04685      1.95216      0.90445        -0.013961      0.004706      0.028482
O      6.76499      2.89725      2.39840         0.004245     -0.038472      0.007961
O      1.35372      2.20177      3.82713        -0.000698      0.029014     -0.005505
