18
# total energy = -101.78545706 eVH      0.63546      4.22617      9.02514        -0.000945      0.029931      0.061139
H      0.56945      1.22733      0.20220         0.016227      0.043123     -0.045331
H      3.24735      0.49275      8.15656        -0.026034      0.048921     -0.050417
H      3.17597      0.16260      0.72458         0.000215     -0.002908     -0.039044
H      1.87560      2.56149      6.98325        -0.003548     -0.043137     -0.020817
H      0.63546      0.45283      4.46914        -0.000945     -0.029931      0.061139
H      0.56945      3.45167      4.75820         0.016227     -0.043123     -0.045331
H      3.24735      4.18625      3.60056        -0.026034     -0.048921     -0.050417
H      3.17597      4.51640      5.28058         0.000215      0.002908     -0.039044
H      1.87560      2.11751      2.42725        -0.003548      0.043137     -0.020817
C      1.90242      1.72687      6.24347        -0.021808      0.054697     -0.036853
C      1.90242      2.95213      1.68747        -0.021808     -0.054697     -0.036853
N     -0.00013      0.37036     -0.00397         0.026447     -0.037447      0.046972
N     -0.00013      4.30864      4.55203         0.026447      0.037447      0.046972
O      1.50894      1.97699      5.06116        -0.039947      0.010309      0.098598
O      2.32746      0.60032      6.65576         0.049394      0.059823     -0.014247
O      1.50894      2.70201      0.50516        -0.039947     -0.010309      0.098598
O      2.32746      4.07868      2.09976         0.049394     -0.059823     -0.014247
