16
# total energy = -96.07960349 eVH      1.47923      4.31023      1.42911        -0.100327     -0.100327     -0.648957
H      0.79511      3.62611     -0.15963         0.192534      0.192534      1.476441
H      4.18277      1.35177      1.42911         0.100327      0.100327     -0.648957
H      4.86689      2.03589     -0.15963        -0.192534     -0.192534      1.476441
H      4.31023      4.18277      3.28689        -0.100327      0.100327      0.648957
H      3.62611      4.86689      0.15963         0.192534     -0.192534     -1.476441
H      1.35177      1.47923      3.28689         0.100327     -0.100327      0.648957
H      2.03589      0.79511      0.15963        -0.192534      0.192534     -1.476441
C     -0.00000      2.83100      1.69156         0.000000     -0.000000     -2.182673
C      2.83100      0.00000      3.02444         0.000000     -0.000000      2.182673
N      0.85657      3.68757      0.89683        -2.140177     -2.140177      1.618763
N      4.80543      1.97443      0.89683         2.140177      2.140177      1.618763
N      3.68757      4.80543      3.81917        -2.140177      2.140177     -1.618763
N      1.97443      0.85657      3.81917         2.140177     -2.140177     -1.618763
O     -0.00000      2.83100      3.00936         0.000000     -0.000000     -3.180109
O      2.83100      0.00000      1.70664         0.000000     -0.000000      3.180109
