18
# total energy = -101.75769815 eVH      0.63600      4.22469      9.02317        -0.040191      0.085597      0.075643
H      0.56998      1.22820      0.20380        -0.019865     -0.015811     -0.070504
H      3.24717      0.49137      8.15592        -0.024209      0.068540     -0.035502
H      3.17528      0.16288      0.72620         0.024050     -0.000101     -0.072488
H      1.87572      2.56057      6.98212        -0.001308     -0.167428     -0.135943
H      0.63600      0.45431      4.46717        -0.040191     -0.085597      0.075643
H      0.56998      3.45080      4.75980        -0.019865      0.015811     -0.070504
H      3.24717      4.18763      3.59992        -0.024209     -0.068540     -0.035502
H      3.17528      4.51612      5.28220         0.024050      0.000101     -0.072488
H      1.87572      2.11843      2.42612        -0.001308      0.167428     -0.135943
C      1.90245      1.71995      6.23643         0.003774      0.775436      0.789442
C      1.90245      2.95905      1.68043         0.003774     -0.775436      0.789442
N     -0.00061      0.37019     -0.00402         0.074729     -0.043794      0.072755
N     -0.00061      4.30881      4.55198         0.074729      0.043794      0.072755
O      1.51238      1.97698      5.06859        -0.281870      0.059007     -0.702287
O      2.32414      0.60651      6.65594         0.264891     -0.583847      0.078884
O      1.51238      2.70202      0.51259        -0.281870     -0.059007     -0.702287
O      2.32414      4.07249      2.09994         0.264891      0.583847      0.078884
