16
# total energy = -102.48221748 eVC      2.52614      0.96124      1.82551        -0.221097      0.111523      0.499819
C      2.80984      5.49124      1.22360         0.221097      0.111523     -0.499819
C      1.03118      8.09876      4.87390         0.221097     -0.111523     -0.499819
C      0.74748      3.56876      5.47581        -0.221097     -0.111523      0.499819
N      0.01102      0.60905     -0.03798        -0.085402      2.303503      0.534543
N     -0.23965      1.83020      0.61494        -0.235807     -0.209186      0.136281
N      1.76764      5.13905      3.38768         0.085402      2.303503     -0.534543
N      2.01831      6.36020      2.73476         0.235807     -0.209186     -0.136281
N     -0.01102      8.45095      0.03798         0.085402     -2.303503     -0.534543
N      0.23965      7.22980      6.38506         0.235807      0.209186     -0.136281
N      1.78968      3.92095      3.31172        -0.085402     -2.303503      0.534543
N      1.53902      2.69980      3.96464        -0.235807      0.209186      0.136281
O      2.78380      1.88178      1.43056         0.111946      0.523447     -0.059437
O      2.55219      6.41178      1.61855        -0.111946      0.523447      0.059437
O      0.77353      7.17822      5.26885        -0.111946     -0.523447      0.059437
O      1.00513      2.64822      5.08085         0.111946     -0.523447     -0.059437
