36
# total energy = -220.37510850 eVH      0.72531      2.40153      2.50147         0.095352      0.227363     -0.257546
H      0.42529      3.57868      1.33040         0.548066      0.598229     -0.449033
H      4.59058      7.65453      1.12663         0.095352      0.227363     -0.257546
H      4.29056      8.83168     -0.04444         0.548066      0.598229     -0.449033
H      7.00524      2.40153     -1.10515        -0.095352      0.227363      0.257546
H      7.30525      3.57868      0.06592        -0.548066      0.598229      0.449033
H      3.13997      7.65453      0.26969        -0.095352      0.227363      0.257546
H      3.43998      8.83168      1.44076        -0.548066      0.598229      0.449033
H      7.00524      8.10447     -1.10515        -0.095352     -0.227363      0.257546
H      7.30525      6.92732      0.06592        -0.548066     -0.598229      0.449033
H      3.13997      2.85147      0.26969        -0.095352     -0.227363      0.257546
H      3.43998      1.67432      1.44076        -0.548066     -0.598229      0.449033
H      0.72531      8.10447      2.50147         0.095352     -0.227363     -0.257546
H      0.42529      6.92732      1.33040         0.548066     -0.598229     -0.449033
H      4.59058      2.85147      1.12663         0.095352     -0.227363     -0.257546
H      4.29056      1.67432     -0.04444         0.548066     -0.598229     -0.449033
C      2.16500      5.25300     -0.20042        -1.029773      0.000000      0.738420
C      3.33526      5.25300     -1.02122         4.476898      0.000000     -3.019125
C      6.03027      0.00000     -1.57526        -1.029773      0.000000      0.738420
C      7.20053      0.00000     -2.39606         4.476898      0.000000     -3.019125
C      5.56555      5.25300      1.59674         1.029773      0.000000     -0.738420
C      4.39529      5.25300      2.41754        -4.476898      0.000000      3.019125
C      1.70028      0.00000      2.97158         1.029773      0.000000     -0.738420
C      0.53002      0.00000      3.79238        -4.476898      0.000000      3.019125
N     -0.00000      3.02466      2.07300         0.000000     -1.700460     -0.000000
N      3.86527      8.27766      0.69816         0.000000     -1.700460     -0.000000
N     -0.00000      7.48134      2.07300         0.000000      1.700460     -0.000000
N      3.86527      2.22834      0.69816         0.000000      1.700460     -0.000000
O      1.69653      6.39502      0.13266         0.219979     -0.291600     -0.120907
O      5.56180      1.14202     -1.24219         0.219979     -0.291600     -0.120907
O      6.03402      6.39502      1.26366        -0.219979     -0.291600      0.120907
O      2.16875      1.14202      2.63850        -0.219979     -0.291600      0.120907
O      6.03402      4.11098      1.26366        -0.219979      0.291600      0.120907
O      2.16875      9.36398      2.63850        -0.219979      0.291600      0.120907
O      1.69653      4.11098      0.13266         0.219979      0.291600     -0.120907
O      5.56180      9.36398     -1.24219         0.219979      0.291600     -0.120907
