36
# total energy = -220.69415247 eVH      0.73489      2.40461      2.49415         0.429259     -0.370912      0.091698
H      0.44422      3.59644      1.31897        -0.151662     -0.520085      0.569136
H      4.60016      7.65761      1.11930         0.429259     -0.370912      0.091698
H      4.30949      8.84944     -0.05587        -0.151662     -0.520085      0.569136
H      6.99565      2.40461     -1.09783        -0.429259     -0.370912     -0.091698
H      7.28633      3.59644      0.07735         0.151662     -0.520085     -0.569136
H      3.13038      7.65761      0.27701        -0.429259     -0.370912     -0.091698
H      3.42106      8.84944      1.45219         0.151662     -0.520085     -0.569136
H      6.99565      8.10139     -1.09783        -0.429259      0.370912     -0.091698
H      7.28633      6.90956      0.07735         0.151662      0.520085     -0.569136
H      3.13038      2.84839      0.27701        -0.429259      0.370912     -0.091698
H      3.42106      1.65656      1.45219         0.151662      0.520085     -0.569136
H      0.73489      8.10139      2.49415         0.429259      0.370912      0.091698
H      0.44422      6.90956      1.31897        -0.151662      0.520085      0.569136
H      4.60016      2.84839      1.11930         0.429259      0.370912      0.091698
H      4.30949      1.65656     -0.05587        -0.151662      0.520085      0.569136
C      2.15334      5.25300     -0.19150         0.489862      0.000000     -0.322368
C      3.35212      5.25300     -1.03242         1.272928      0.000000     -0.861368
C      6.01861      0.00000     -1.56634         0.489862      0.000000     -0.322368
C      7.21739      0.00000     -2.40726         1.272928      0.000000     -0.861368
C      5.57720      5.25300      1.58782        -0.489862      0.000000      0.322368
C      4.37842      5.25300      2.42874        -1.272928      0.000000      0.861368
C      1.71193      0.00000      2.96266        -0.489862      0.000000      0.322368
C      0.51315      0.00000      3.80358        -1.272928      0.000000      0.861368
N     -0.00000      2.98131      2.07300         0.000000      1.802357      0.000000
N      3.86527      8.23431      0.69816         0.000000      1.802357      0.000000
N     -0.00000      7.52469      2.07300         0.000000     -1.802357      0.000000
N      3.86527      2.27169      0.69816         0.000000     -1.802357      0.000000
O      1.70387      6.38537      0.12860        -0.328065      0.561138      0.231806
O      5.56914      1.13237     -1.24624        -0.328065      0.561138      0.231806
O      6.02667      6.38537      1.26772         0.328065      0.561138     -0.231806
O      2.16140      1.13237      2.64256         0.328065      0.561138     -0.231806
O      6.02667      4.12063      1.26772         0.328065     -0.561138     -0.231806
O      2.16140      9.37363      2.64256         0.328065     -0.561138     -0.231806
O      1.70387      4.12063      0.12860        -0.328065     -0.561138      0.231806
O      5.56914      9.37363     -1.24624        -0.328065     -0.561138      0.231806
