16
# total energy = -108.29929765 eVC      2.34702      1.63981      2.32135        -0.560405      0.748806      1.585675
C      2.98896      6.16981      0.72776         0.560405      0.748806     -1.585675
C      1.21030      7.42019      4.37805         0.560405     -0.748806     -1.585675
C      0.56836      2.89019      5.97165        -0.560405     -0.748806      1.585675
N     -0.11915      0.45162      0.45356        -0.928084     -0.211694     -1.153108
N     -0.59116      1.47304      1.08487         1.922846     -1.480513     -1.612075
N      1.89781      4.98162      2.89614         0.928084     -0.211694      1.153108
N      2.36982      6.00304      2.26483        -1.922846     -1.480513      1.612075
N      0.11915      8.60838     -0.45356         0.928084      0.211694      1.153108
N      0.59116      7.58696      5.91513        -1.922846      1.480513      1.612075
N      1.65951      4.07838      3.80326        -0.928084      0.211694     -1.153108
N      1.18750      3.05696      4.43458         1.922846      1.480513     -1.612075
O      2.73828      2.31746      1.65771        -0.625271      0.211668      0.360694
O      2.59771      6.84746      1.39140         0.625271      0.211668     -0.360694
O      0.81904      6.74254      5.04170         0.625271     -0.211668     -0.360694
O      0.95962      2.21254      5.30800        -0.625271     -0.211668      0.360694
