16
# total energy = -97.33411755 eVH      1.45416      4.28516      1.39975        -0.016297     -0.016297     -0.003084
H      0.79685      3.62785     -0.08982        -0.008497     -0.008497     -0.105295
H      4.20784      1.37684      1.39975         0.016297      0.016297     -0.003084
H      4.86515      2.03415     -0.08982         0.008497      0.008497     -0.105295
H      4.28516      4.20784      3.31625        -0.016297      0.016297      0.003084
H      3.62785      4.86515      0.08982        -0.008497      0.008497      0.105295
H      1.37684      1.45416      3.31625         0.016297     -0.016297      0.003084
H      2.03415      0.79685      0.08982         0.008497     -0.008497      0.105295
C     -0.00000      2.83100      1.63563        -0.000000     -0.000000     -0.038150
C      2.83100      0.00000      3.08037        -0.000000     -0.000000      0.038150
N      0.81413      3.64513      0.92710         0.022220      0.022220      0.038513
N      4.84787      2.01687      0.92710        -0.022220     -0.022220      0.038513
N      3.64513      4.84787      3.78890         0.022220     -0.022220     -0.038513
N      2.01687      0.81413      3.78890        -0.022220      0.022220     -0.038513
O     -0.00000      2.83100      2.91033        -0.000000     -0.000000     -0.023919
O      2.83100      0.00000      1.80567        -0.000000     -0.000000      0.023919
