16
# total energy = -109.43155119 eVC      2.32751      1.75797      2.40610        -0.902645     -0.109955      1.963340
C      3.00847      6.28797      0.64302         0.902645     -0.109955     -1.963340
C      1.22981      7.30203      4.29331         0.902645      0.109955     -1.963340
C      0.54885      2.77203      6.05639        -0.902645      0.109955      1.963340
N     -0.18970      0.41692      0.44040        -0.279192      0.455907     -0.079595
N     -0.55107      1.42316      1.12884         0.322841      0.452045      0.226435
N      1.96836      4.94692      2.90930         0.279192      0.455907      0.079595
N      2.32973      5.95316      2.22086        -0.322841      0.452045     -0.226435
N      0.18970      8.64308     -0.44040         0.279192     -0.455907      0.079595
N      0.55107      7.63684      5.87116        -0.322841     -0.452045     -0.226435
N      1.58897      4.11308      3.79011        -0.279192     -0.455907     -0.079595
N      1.22759      3.10684      4.47855         0.322841     -0.452045      0.226435
O      2.70077      2.30710      1.66390         0.550004     -0.132354     -1.586554
O      2.63521      6.83710      1.38521        -0.550004     -0.132354      1.586554
O      0.85655      6.75290      5.03551        -0.550004      0.132354      1.586554
O      0.92211      2.22290      5.31420         0.550004      0.132354     -1.586554
