40
# total energy = -31.13366389 eVH      5.26513      0.62974      3.89822         3.855398     -0.154259      2.405881
H      5.04565      0.82375      1.56540         1.200542      2.147865     -1.914171
H      7.23137      2.95781      3.89822        -3.855398      0.154259      2.405881
H      7.45085      2.76380      1.56540        -1.200542     -2.147865     -1.914171
H      3.06587      4.21729      1.56398        -3.855398     -0.154259     -2.405881
H      3.28535      4.41130      3.89680        -1.200542      2.147865      1.914171
H      1.09963      6.54536      1.56398         3.855398      0.154259     -2.405881
H      0.88015      6.35135      3.89680         1.200542     -2.147865      1.914171
H      3.06587      6.54536      1.56398        -3.855398      0.154259     -2.405881
H      3.28535      6.35135      3.89680        -1.200542     -2.147865      1.914171
H      1.09963      4.21729      1.56398         3.855398     -0.154259     -2.405881
H      0.88015      4.41130      3.89680         1.200542      2.147865      1.914171
H      5.26513      2.95781      3.89822         3.855398      0.154259      2.405881
H      5.04565      2.76380      1.56540         1.200542     -2.147865     -1.914171
H      7.23137      0.62974      3.89822        -3.855398     -0.154259      2.405881
H      7.45085      0.82375      1.56540        -1.200542      2.147865     -1.914171
H      6.24825      6.72424      5.35502        -0.000000      2.933272     -2.073840
H      6.24825      4.03841      5.35502        -0.000000     -2.933272     -2.073840
H      2.08275      3.13669      0.10718        -0.000000      2.933272      2.073840
H      2.08275      0.45086      0.10718        -0.000000     -2.933272      2.073840
H      4.01552      1.79377      0.10742         3.563411      0.000000      5.113558
H      0.14998      1.79377      0.10742        -3.563411      0.000000      5.113558
H      4.31548      5.38132      5.35478        -3.563411      0.000000     -5.113558
H     -0.14998      5.38132      5.35478         3.563411      0.000000     -5.113558
C      6.24825      0.80865      4.64233        -0.000000    -14.504452     -7.472725
C      6.24825      2.77890      4.64233        -0.000000     14.504452     -7.472725
C      2.08275      4.39620      0.81987        -0.000000    -14.504452      7.472725
C      2.08275      6.36645      0.81987        -0.000000     14.504452      7.472725
C      5.25178      1.79377      0.85157       -14.739219      0.000000      7.929772
C      7.24472      1.79377      0.85157        14.739219      0.000000      7.929772
C      3.07922      5.38132      4.61063        14.739219      0.000000     -7.929772
C      1.08628      5.38132      4.61063       -14.739219      0.000000     -7.929772
N      6.24825      1.79377      0.02758        -0.000000      0.000000     -0.180652
N      2.08275      5.38132      5.43462        -0.000000      0.000000      0.180652
N      2.08275      1.79377      2.11553        -0.000000      0.000000     -0.843775
N      6.24825      5.38132      3.34667        -0.000000      0.000000      0.843775
O      3.97064      1.79377      4.01863        -5.113106      0.000000     -4.075785
O      0.19486      1.79377      4.01863         5.113106      0.000000     -4.075785
O      4.36036      5.38132      1.44357         5.113106      0.000000      4.075785
O      8.13614      5.38132      1.44357        -5.113106      0.000000      4.075785
