16
# total energy = -97.34201712 eVH      1.44490      4.27590      1.38880         0.058888      0.058888     -0.056360
H      0.79769      3.62869     -0.12033         0.013970      0.013970     -0.001973
H      4.21710      1.38610      1.38880        -0.058888     -0.058888     -0.056360
H      4.86431      2.03331     -0.12033        -0.013970     -0.013970     -0.001973
H      4.27590      4.21710      3.32720         0.058888     -0.058888      0.056360
H      3.62869      4.86431      0.12033         0.013970     -0.013970      0.001973
H      1.38610      1.44490      3.32720        -0.058888      0.058888      0.056360
H      2.03331      0.79769      0.12033        -0.013970      0.013970      0.001973
C     -0.00000      2.83100      1.60784        -0.000000     -0.000000     -0.091050
C      2.83100      0.00000      3.10816        -0.000000     -0.000000      0.091050
N      0.81290      3.64390      0.89889         0.030745      0.030745      0.010113
N      4.84910      2.01810      0.89889        -0.030745     -0.030745      0.010113
N      3.64390      4.84910      3.81711         0.030745     -0.030745     -0.010113
N      2.01810      0.81290      3.81711        -0.030745      0.030745     -0.010113
O     -0.00000      2.83100      2.88127        -0.000000     -0.000000      0.038711
O      2.83100      0.00000      1.83473        -0.000000     -0.000000     -0.038711
