44
# total energy = -298.84589343 eVH      8.34916      8.46305      1.90861         0.404078     -0.413566      0.871599
H      8.41274      9.00264      0.26192         0.456706      0.124374     -0.913753
H      2.45439      5.56332      3.99504         0.572414      0.643279     -0.068671
H      1.22927      4.45991      3.60108        -0.844383     -0.605178     -0.520919
H      0.71409      1.46612      0.58154        -0.404078      0.413566     -0.871599
H      0.65051      0.92653      2.22823        -0.456706     -0.124374      0.913753
H      6.60887      4.36585     -1.50489        -0.572414     -0.643279      0.068671
H      7.83399      5.46926     -1.11093         0.844383      0.605178      0.520919
C      6.74927      1.56497      2.38715        -0.470846      0.065981      0.348534
C      2.01607      4.24571      5.44007         0.194322      0.277622     -0.236298
C      2.31399      8.36420      0.10300         0.470846     -0.065981     -0.348534
C      7.04718      5.68346     -2.94992        -0.194322     -0.277622      0.236298
N      5.99891      2.20178      1.50105        -0.662059      0.488622     -0.499685
N      7.90194      8.87048      1.10887         1.387282     -0.669085     -0.306019
N      6.47870      2.39004      0.26058         0.118360      0.012018     -0.148501
N      6.24306      1.42823      3.65927        -1.030365      0.365693      0.497186
N      5.09880      1.92289      3.79404         2.152314     -0.907885     -0.296113
N      4.08776      2.30962      4.08426        -2.117766      0.795664      0.625956
N      1.32874      3.26873      5.98451        -0.493168     -1.023978      0.820878
N      1.86735      4.79576      4.28457         0.170089      1.058361     -1.466408
N      0.32703      2.70406      5.28396        -0.194686     -0.218396     -0.025222
N      3.03320      4.82045     -0.96621         0.398318     -0.213931      1.157178
N      3.07121      4.38683      0.21125         0.036843      0.796682     -2.068529
N      3.21581      4.10273      1.28489         0.310452     -0.564788      2.227955
N      3.06435      7.72739      0.98910         0.662059     -0.488622      0.499685
N      1.16132      1.05869      1.38128        -1.387282      0.669085      0.306019
N      2.58456      7.53913      2.22957        -0.118360     -0.012018      0.148501
N      2.82019      0.64104     -0.02109         1.030365     -0.365693     -0.497186
N      3.96446      8.00628     -1.30388        -2.152314      0.907885      0.296113
N      4.97549      7.61955     -1.59411         2.117766     -0.795664     -0.625956
N      7.73451      6.66044     -3.49436         0.493168      1.023978     -0.820878
N      7.19590      5.13341     -1.79442        -0.170089     -1.058361      1.466408
N      8.73623      7.22511     -2.79381         0.194686      0.218396      0.025222
N      6.03005      5.10873      3.45636        -0.398318      0.213931     -1.157178
N      5.99205      5.54234      2.27890        -0.036843     -0.796682      2.068529
N      5.84745      5.82644      1.20527        -0.310452      0.564788     -2.227955
O      5.68936      2.97563     -0.52115        -0.230507      0.240185     -0.224757
O      7.61736      2.02633     -0.11740         0.094817     -0.043573      0.027227
O      8.72762      3.91937      2.42249        -0.065980     -0.161560      0.224734
O      0.05803      2.99299      4.09142         0.017709      0.015257     -0.100576
O      3.37389      6.95354      3.01130         0.230507     -0.240185      0.224757
O      1.44590      7.90284      2.60755        -0.094817      0.043573     -0.027227
O      0.33564      6.00980      0.06766         0.065980      0.161560     -0.224734
O      9.00523      6.93618     -1.60127        -0.017709     -0.015257      0.100576
