16
# total energy = -88.57305534 eVC      2.71766      0.58318      1.49270        -0.669610      0.341807      1.425798
C      2.61833      5.11318      1.55641         0.669610      0.341807     -1.425798
C      0.83967      8.47682      5.20671         0.669610     -0.341807     -1.425798
C      0.93899      3.94682      5.14299        -0.669610     -0.341807      1.425798
N     -0.02684      0.64964      0.16014         0.143037     -2.939384     -0.875549
N     -0.02232      1.88737      0.21444        -0.186523      3.763874      0.631247
N      1.80550      5.17964      3.18956        -0.143037     -2.939384      0.875549
N      1.80098      6.41737      3.13526         0.186523      3.763874     -0.631247
N      0.02684      8.41036     -0.16014        -0.143037      2.939384      0.875549
N      0.02232      7.17263      6.78556         0.186523     -3.763874     -0.631247
N      1.75182      3.88036      3.50984         0.143037      2.939384     -0.875549
N      1.75634      2.64263      3.56414        -0.186523     -3.763874      0.631247
O      2.54933      1.61285      1.81335         0.640984      0.709853     -1.272149
O      2.78665      6.14285      1.23576        -0.640984      0.709853      1.272149
O      1.00799      7.44715      4.88605        -0.640984     -0.709853      1.272149
O      0.77067      2.91715      5.46365         0.640984     -0.709853     -1.272149
