56
# total energy = -351.95072102 eVH      5.14972      2.26625      4.09814        -0.005215      0.257896     -0.563252
H      6.52146      1.99177      5.16461         1.108311      0.008974     -0.111985
H      3.08917      1.96964      4.91582        -0.144538      0.571865     -1.395806
H      2.81409      1.32419      6.38040        -0.737391     -0.685402      1.372329
H      5.23163      5.54200      1.52804         0.005215      0.257896      0.563252
H      3.85988      5.26752      0.46157        -1.108311      0.008974      0.111985
H      0.37128      5.24539      0.71761         0.144538      0.571865      1.395806
H      0.64636      4.59994     10.52713         0.737391     -0.685402     -1.372329
H      1.77118      4.28525      7.16871         0.005215     -0.257896      0.563252
H      0.39943      4.55973      6.10225        -1.108311     -0.008974      0.111985
H      3.83173      4.58186      6.35103         0.144538     -0.571865      1.395806
H      4.10680      5.22731      4.88646         0.737391      0.685402     -1.372329
H      1.68927      1.00950      9.73882        -0.005215     -0.257896     -0.563252
H      3.06102      1.28398     10.80528         1.108311     -0.008974     -0.111985
H      6.54962      1.30611     10.54925        -0.144538     -0.571865     -1.395806
H      6.27454      1.95156      0.73972        -0.737391      0.685402      1.372329
C      5.30971      1.10524      7.17758         0.046995     -0.151225      0.523681
C      4.74943      1.57339      5.92539         3.079820     -0.628146      1.438134
C      5.07163      4.38099      9.72269        -0.046995     -0.151225     -0.523681
C      5.63192      4.84914     10.97489        -3.079820     -0.628146     -1.438134
C      1.61118      5.44626      4.08927        -0.046995      0.151225     -0.523681
C      2.17147      4.97811      5.34146        -3.079820      0.628146     -1.438134
C      1.84927      2.17051      1.54416         0.046995      0.151225      0.523681
C      1.28898      1.70236      0.29196         3.079820      0.628146      1.438134
N      6.67193      0.94233      7.41759         0.173245      0.066347     -0.060033
N      4.45367      0.83546      8.26762         0.070596      0.034228     -0.122154
N      5.54464      1.95622      4.97295         0.166341      0.317903     -0.962649
N      3.50361      1.66708      5.76541        -3.795130      0.351341     -0.570146
N      3.70942      4.21808      9.48269        -0.173245      0.066347      0.060033
N      5.92768      4.11121      8.63266        -0.070596      0.034228      0.122154
N      4.83671      5.23197      0.65323        -0.166341      0.317903      0.962649
N     -0.04317      4.94283     11.14212         3.795130      0.351341      0.570146
N      0.24897      5.60917      3.84927        -0.173245     -0.066347      0.060033
N      2.46723      5.71604      2.99924        -0.070596     -0.034228      0.122154
N      1.37626      4.59528      6.29391        -0.166341     -0.317903      0.962649
N      3.41728      4.88442      5.50144         3.795130     -0.351341      0.570146
N      3.21148      2.33342      1.78416         0.173245     -0.066347     -0.060033
N      0.99322      2.44029      2.63419         0.070596     -0.034228     -0.122154
N      2.08419      1.31953     10.61362         0.166341     -0.317903     -0.962649
N      0.04317      1.60867      0.13198        -3.795130     -0.351341     -0.570146
O      0.15776      0.37920      8.46529         0.063363     -0.175910      0.353944
O      0.56718      1.31761      6.54219         0.318774      0.172603     -0.339318
O      3.31830      0.37358      8.02887        -0.430277     -0.158490     -0.080206
O      4.82117      1.08681      9.43188         0.109980      0.071114      0.462792
O      3.30269      3.65495      8.44223        -0.063363     -0.175910     -0.353944
O      2.89327      4.59336     10.36533        -0.318774      0.172603      0.339318
O      0.14214      3.64933      8.87866         0.430277     -0.158490      0.080206
O      5.56018      4.36256      7.46840        -0.109980      0.071114     -0.462792
O      6.76314      6.17230      2.80156        -0.063363      0.175910     -0.353944
O      6.35372      5.23389      4.72466        -0.318774     -0.172603      0.339318
O      3.60259      6.17792      3.23798         0.430277      0.158490      0.080206
O      2.09973      5.46469      1.83497        -0.109980     -0.071114     -0.462792
O      3.61821      2.89655      2.82462         0.063363      0.175910      0.353944
O      4.02762      1.95814      0.90152         0.318774     -0.172603     -0.339318
O      6.77875      2.90217      2.38820        -0.430277      0.158490     -0.080206
O      1.36072      2.18894      3.79845         0.109980     -0.071114      0.462792
