12
# total energy = -69.78823264 eVC      2.47604      1.30750      0.97527       -16.619114      0.000000     -4.638615
C      2.93396      3.92250      2.76027        16.619114      0.000000     -4.638615
C      8.34396      3.92250      2.59473        16.619114     -0.000000      4.638615
C      7.88604      1.30750      0.80973       -16.619114     -0.000000      4.638615
N     -1.21779      1.30750     -0.22880        -3.946567     -0.000000      4.208772
N      6.62779      3.92250      1.55620         3.946567     -0.000000      4.208772
N      1.21779      3.92250      0.22880         3.946567     -0.000000     -4.208772
N      4.19221      1.30750      2.01380        -3.946567      0.000000     -4.208772
O      3.26947      1.30750      1.17719        20.579867      0.000000      8.848018
O      2.14053      3.92250      2.96219       -20.579867      0.000000      8.848018
O      7.55053      3.92250      2.39281       -20.579867     -0.000000     -8.848018
O      8.67947      1.30750      0.60781        20.579867     -0.000000     -8.848018
