38
# total energy = -218.67507942 eVH      3.51998      1.49533      2.12807        -0.031943      0.055139     -0.052026
H      3.84733      2.81647      1.04275        -0.013659     -0.083369     -0.002423
H      2.79171      3.03047      2.34909         0.055682      0.031925     -0.122577
H      2.33969      2.04629      1.02296        -0.020662     -0.030193      0.022076
H      3.22869     10.11168     -0.10976        -0.170897     -0.047508     -0.087143
H      4.49702      8.81367      2.12807         0.031943     -0.055139     -0.052026
H      4.16967      7.49253      1.04275         0.013659      0.083369     -0.002423
H      5.22529      7.27853      2.34909        -0.055682     -0.031925     -0.122577
H      5.67731      8.26271      1.02296         0.020662      0.030193      0.022076
H      4.78831      0.19732     -0.10976         0.170897      0.047508     -0.087143
H      0.48852      6.64983      1.60693         0.031943      0.055139      0.052026
H      0.16117      7.97097      2.69225         0.013659     -0.083369      0.002423
H      1.21679      8.18497      1.38591        -0.055682      0.031925      0.122577
H      1.66881      7.20079      2.71204         0.020662     -0.030193     -0.022076
H      0.77981      4.95718      0.10976         0.170897     -0.047508      0.087143
H      7.52848      3.65917      1.60693        -0.031943     -0.055139      0.052026
H      7.85583      2.33803      2.69225        -0.013659      0.083369      0.002423
H      6.80021      2.12403      1.38591         0.055682     -0.031925      0.122577
H      6.34819      3.10821      2.71204        -0.020662      0.030193     -0.022076
H      7.23719      5.35182      0.10976        -0.170897      0.047508      0.087143
C      0.74642      0.24439      0.25707         0.068828     -0.071871     -0.056794
C      7.27058     10.06461      0.25707        -0.068828      0.071871     -0.056794
C      3.26208      5.39889      3.47793        -0.068828     -0.071871      0.056794
C      4.75492      4.91011      3.47793         0.068828      0.071871      0.056794
N      3.12951      2.33718      1.63971        -0.018868     -0.026356      0.053680
N      4.88749      7.97182      1.63971         0.018868      0.026356      0.053680
N      0.87899      7.49168      2.09529         0.018868     -0.026356     -0.053680
N      7.13801      2.81732      2.09529        -0.018868      0.026356     -0.053680
O      1.64195      9.69456      0.52079        -0.028683      0.029601      0.024968
O      0.95497      1.46617     -0.01438         0.040978      0.050327      0.027672
O      6.37505      0.61444      0.52079         0.028683     -0.029601      0.024968
O      7.06203      8.84283     -0.01438        -0.040978     -0.050327      0.027672
O      2.36655      4.54006      3.21421         0.028683      0.029601     -0.024968
O      3.05353      6.62067      0.01438        -0.040978      0.050327     -0.027672
O      5.65045      5.76894      3.21421        -0.028683     -0.029601     -0.024968
O      4.96347      3.68833      0.01438         0.040978     -0.050327     -0.027672
O      4.00850      0.00000      3.03606         0.000000      0.000000      0.110435
O     -0.00000      5.15450      0.69894         0.000000      0.000000     -0.110435
