152
# total energy = -1023.21784576 eVH     10.35389      5.87395      7.64558         0.494289      0.085098      0.718406
H     10.62451     15.10445      7.64558        -0.108011     -0.052503      0.815894
H     10.62451      5.87395     13.33282         0.144126      0.127694     -0.640128
H     10.35389     15.10445     13.33282        -0.167773     -0.123983     -0.538260
H      7.64558     10.35389      5.87395         0.310648     -0.022229      0.190153
H      7.64558     10.62451     15.10445         0.643196     -0.213178     -0.136050
H     13.33282     10.62451      5.87395        -0.777842     -0.163875      0.203651
H     13.33282     10.35389     15.10445        -0.432193     -0.101110     -0.060940
H      5.87395      7.64558     10.35389         0.209054      1.097014     -0.266661
H     15.10445      7.64558     10.62451        -0.176592      0.474646     -0.123503
H      5.87395     13.33282     10.62451         0.160690     -0.418494     -0.061253
H     15.10445     13.33282     10.35389        -0.131087     -0.912929      0.017326
H      5.87395     10.35389      7.64558         0.132985      0.097455      0.459674
H     15.10445     10.62451      7.64558         0.098873     -0.022437      1.055384
H      5.87395     10.62451     13.33282         0.193626     -0.027924     -0.384104
H     15.10445     10.35389     13.33282        -0.121284     -0.055788     -0.537051
H     10.35389      7.64558      5.87395         0.133388      0.871374      0.185666
H     10.62451      7.64558     15.10445        -0.010744      0.536253     -0.163944
H     10.62451     13.33282      5.87395        -0.014086     -0.584556      0.215767
H     10.35389     13.33282     15.10445        -0.285006     -0.889778     -0.130218
H      7.64558      5.87395     10.35389         0.444058      0.095774     -0.046999
H      7.64558     15.10445     10.62451         0.839317     -0.281283      0.028921
H     13.33282      5.87395     10.62451        -0.452259      0.187527     -0.066703
H     13.33282     15.10445     10.35389        -0.660230     -0.100067      0.164772
H     12.45634     12.45634     19.01126         0.252173      0.264161     -0.230495
H     19.01126     19.01126     19.01126        -0.252398     -0.230032     -0.262214
H     19.01126     12.45634     12.45634        -0.234486      0.272604      0.241022
H     12.45634     19.01126     12.45634         0.224620     -0.263329      0.249640
C     10.35284      5.61067      6.59456        -0.197610     -0.355806     -0.033315
C     10.62556     15.36773      6.59456         0.070380      0.366523     -1.235230
C     10.62556      5.61067     14.38384        -0.057259     -0.256688      0.815466
C     10.35284     15.36773     14.38384         0.041540      0.875373      0.419097
C      6.59456     10.35284      5.61067        -0.365181     -0.036375     -0.172089
C      6.59456     10.62556     15.36773        -0.835984      0.191160      0.368173
C     14.38384     10.62556      5.61067         0.475242      0.303365     -0.499046
C     14.38384     10.35284     15.36773         0.771817     -0.109507      0.444484
C      5.61067      6.59456     10.35284        -0.314616     -0.647816      0.431867
C     15.36773      6.59456     10.62556         0.165736     -0.512009      0.084059
C      5.61067     14.38384     10.62556        -0.144035      0.384262     -0.023678
C     15.36773     14.38384     10.35284         0.396721     -0.032470     -0.094730
C      5.61067     10.35284      6.59456        -0.259126     -0.022843     -0.784725
C     15.36773     10.62556      6.59456         0.606593     -0.269499     -1.340496
C      5.61067     10.62556     14.38384        -0.338520     -0.001620      0.425641
C     15.36773     10.35284     14.38384         0.490148     -0.163448      1.123587
C     10.35284      6.59456      5.61067        -0.171178     -0.474800     -0.432069
C     10.62556      6.59456     15.36773         0.056661     -0.641818      0.274245
C     10.62556     14.38384      5.61067         0.094168      0.986922     -0.496561
C     10.35284     14.38384     15.36773         0.256033      0.601274      0.519354
C      6.59456      5.61067     10.35284        -0.114560     -0.819669      0.073566
C      6.59456     15.36773     10.62556        -1.524290      0.415620      0.112599
C     14.38384      5.61067     10.62556         0.640671     -0.277398     -0.018803
C     14.38384     15.36773     10.35284        -0.425564      0.682319     -0.313982
C     10.40319      3.19606      7.29314         0.005517      0.830234     -0.295755
C     10.35913      4.25547      6.23373        -0.054703     -0.472998      0.498803
C      0.08601      7.29314      7.29314        -0.006752     -0.254435     -0.526227
C      0.13007      6.23373      6.23373         0.032722      0.152409      0.209319
C      0.08601      3.19606      3.19606        -0.010900      0.601731      0.196374
C      0.13007      4.25547      4.25547        -0.093654     -0.178552     -0.195050
C     10.40319      7.29314      3.19606        -0.009146     -0.636277      0.565391
C     10.35913      6.23373      4.25547        -0.045227      0.264808     -0.609697
C      7.29314     10.40319      3.19606        -0.305944      0.026368      0.948392
C      6.23373     10.35913      4.25547         0.168588      0.032126     -0.127861
C      7.29314      0.08601      7.29314        -0.306408     -0.035761     -0.301320
C      6.23373      0.13007      6.23373         0.329466     -0.050674      0.317075
C      3.19606      0.08601      3.19606         0.517403     -0.031329      0.704178
C      4.25547      0.13007      4.25547        -0.092498     -0.028682     -0.369641
C      3.19606     10.40319      7.29314         0.715166      0.001389     -0.410331
C      4.25547     10.35913      6.23373        -0.156434      0.028542      0.082198
C      3.19606      7.29314     10.40319         0.682722     -1.283685     -0.011528
C      4.25547      6.23373     10.35913        -0.659323      0.914906      0.079758
C      7.29314      7.29314      0.08601        -0.700601     -0.180302     -0.018568
C      6.23373      6.23373      0.13007         0.218625      0.201676      0.019131
C      3.19606      3.19606      0.08601         0.270102      0.297668     -0.021324
C      4.25547      4.25547      0.13007        -0.071963     -0.039427     -0.003694
C      7.29314      3.19606     10.40319        -0.360121      1.015610      0.016426
C      6.23373      4.25547     10.35913         1.066329     -0.024326      0.009500
O     10.43466      3.58206      8.50569        -0.042697      0.050150      0.386959
O     10.54374     17.39634      8.50569        -0.042721     -0.171695      0.592316
O     10.54374      3.58206     12.47271         0.049257      0.074189     -0.325637
O     10.43466     17.39634     12.47271        -0.008634     -0.140591     -0.634452
O      8.50569     10.43466      3.58206         0.336164     -0.030928     -0.032336
O      8.50569     10.54374     17.39634         0.471033      0.044559     -0.145966
O     12.47271     10.54374      3.58206        -0.475246      0.011981      0.084104
O     12.47271     10.43466     17.39634        -0.802980      0.002129     -0.194092
O      3.58206      8.50569     10.43466         0.109080      1.041827      0.015447
O     17.39634      8.50569     10.54374        -0.027275      0.305688      0.074253
O      3.58206     12.47271     10.54374         0.073046     -0.464052      0.050338
O     17.39634     12.47271     10.43466        -0.175208     -0.899584      0.057769
O      3.58206     10.43466      8.50569        -0.063171     -0.068200      0.328600
O     17.39634     10.54374      8.50569        -0.130641      0.041291      0.462216
O      3.58206     10.54374     12.47271         0.093995     -0.023671     -0.644429
O     17.39634     10.43466     12.47271        -0.187009      0.056116     -0.794429
O     10.43466      8.50569      3.58206         0.026707      0.638562      0.156843
O     10.54374      8.50569     17.39634         0.061820      0.437379     -0.081068
O     10.54374     12.47271      3.58206        -0.006974     -0.702498      0.225765
O     10.43466     12.47271     17.39634         0.033586     -0.843472     -0.240993
O      8.50569      3.58206     10.43466         0.436568      0.019556     -0.041256
O      8.50569     17.39634     10.54374         0.701246     -0.262317     -0.065735
O     12.47271      3.58206     10.54374        -0.462174      0.152439      0.041667
O     12.47271     17.39634     10.43466        -0.562550     -0.023337     -0.005704
O     11.90042     11.90042     19.56718        -0.294497     -0.313342      0.255997
O     19.56718     19.56718     19.56718         0.282988      0.261143      0.310742
O     19.56718     11.90042     11.90042         0.258661     -0.322039     -0.246803
O     11.90042     19.56718     11.90042        -0.272552      0.277020     -0.267473
O      9.45224      1.03696      9.45224        -0.083324      0.041357     -0.071323
O      1.03696      9.45224      9.45224         0.011923     -0.172104     -0.098544
O      1.03696      1.03696      1.03696         0.002275      0.069645      0.177226
O      9.45224      9.45224      1.03696        -0.063056     -0.104005      0.103931
Zr     10.48920      2.52580     10.48920         0.003963     -0.095339     -0.047289
Zr     10.48920     18.45260     10.48920         0.138820      0.368477      0.006393
Zr     10.48920     10.48920      2.52580         0.011879     -0.017872     -0.369149
Zr     10.48920     10.48920     18.45260        -0.153255     -0.050174      0.370143
Zr      2.52580     10.48920     10.48920        -0.332260      0.242973     -0.125238
Zr     18.45260     10.48920     10.48920         0.280502     -0.013831     -0.282108
Pd      8.98894     10.12360     13.30794        -0.041337     -0.027468      0.010176
Pd     10.68159      9.70666     10.86610        -0.010130     -0.030435     -0.055902
Pd     13.72446      8.37260     12.57718        -0.017673      0.011963      0.010407
Pd     11.00545     10.91193     14.95793        -0.030029     -0.017287     -0.007182
Pd     12.90795     11.00364     12.94719         0.008051      0.018820      0.041192
Pd     15.11070     11.10233     11.31298        -0.004780     -0.029295      0.000036
Pd      6.59053      7.71329     12.32208        -0.015550      0.025833      0.022817
Pd      9.31484      7.28678      9.87208        -0.005301     -0.008513     -0.016536
Pd      9.21736      7.46890     12.63601        -0.003524     -0.013563     -0.013480
Pd     11.62513      7.14401     11.43024        -0.008674      0.006926     -0.013667
Pd     11.70159      7.99445      8.92412         0.011991     -0.023407     -0.034270
Pd      7.38777     11.77558     11.77301        -0.012799     -0.008942     -0.016237
Pd      9.20951     14.78741      9.44333         0.013275     -0.015465      0.009704
Pd      8.41627     12.55428     14.24458        -0.014435     -0.012590     -0.004096
Pd     14.09157     14.25049      8.31513         0.006966     -0.006442      0.000895
Pd     11.49556     13.65197      8.72208         0.017000     -0.013211      0.013977
Pd     14.16576     11.69192      8.89449        -0.004179     -0.011465     -0.000531
Pd      8.72947     14.03252     12.05607        -0.004378     -0.005383      0.003122
Pd     12.27509     13.48343     14.13557        -0.011678      0.008617     -0.008030
Pd     11.34768     14.43473     11.44002         0.013269     -0.024605      0.009895
Pd     14.08719     13.59772     12.27423         0.002846     -0.012933     -0.003238
Pd     12.42981     12.18016     10.72460         0.002922     -0.051617      0.004115
Pd     12.75191     12.51030      6.68725         0.000266     -0.004912     -0.004627
Pd     13.93416      9.00388      8.01213        -0.002616     -0.006532     -0.006845
Pd      6.93546      8.49529      8.75874         0.007565     -0.002269     -0.015401
Pd      5.62483     10.10938     10.71319        -0.000441     -0.000818     -0.050132
Pd      9.39853      9.45641      8.13031        -0.000394     -0.025993     -0.043268
Pd      8.56797      7.02223      7.24185        -0.013929     -0.026431     -0.008462
Pd      9.76717     12.13909     10.33192        -0.011433     -0.015654     -0.001011
Pd     11.63991     10.81040      8.51158         0.004675     -0.010567     -0.021148
Pd     11.58200      9.10042      6.48624         0.017311     -0.006603     -0.023904
Pd     10.07577     11.35592      6.36652         0.018128     -0.003275     -0.012361
Ir     11.29208      8.98985     13.22737        -0.037482      0.027379     -0.038775
Ir     13.21752      9.62419     10.40297        -0.007610     -0.023373     -0.031089
Ir     10.55935     12.21890     12.71661        -0.004830     -0.037261      0.021978
Ir      7.60368     11.00168      9.24663         0.029516     -0.004518     -0.017482
Ir      8.80069     12.64962      8.07763         0.012184     -0.010009      0.016514
Ir      8.18844      9.30271     11.00328        -0.007858     -0.008311     -0.004549
