152
# total energy = -1093.15606355 eVH     10.35389      5.87395      7.64558        -0.048547     -0.118385      1.169514
H     10.62451     15.10445      7.64558        -0.161408      0.084261      1.374202
H     10.62451      5.87395     13.33282         0.150195     -0.037556     -1.070783
H     10.35389     15.10445     13.33282         0.017722     -0.055569     -0.881832
H      7.64558     10.35389      5.87395         0.529088      0.023689     -0.100673
H      7.64558     10.62451     15.10445         0.404419     -0.002000      0.006047
H     13.33282     10.62451      5.87395        -0.668539     -0.034335      0.002650
H     13.33282     10.35389     15.10445        -0.429318     -0.013905     -0.018673
H      5.87395      7.64558     10.35389        -0.145109      1.334460      0.052783
H     15.10445      7.64558     10.62451        -0.018520      0.443886      0.030185
H      5.87395     13.33282     10.62451        -0.077992     -0.225469      0.044136
H     15.10445     13.33282     10.35389         0.185613     -1.510191      0.102620
H      5.87395     10.35389      7.64558        -0.083544     -0.776569      0.493580
H     15.10445     10.62451      7.64558         0.447911      0.800461      0.228089
H      5.87395     10.62451     13.33282        -0.002527     -0.175293     -0.266928
H     15.10445     10.35389     13.33282        -0.068449      0.230902     -0.186983
H     10.35389      7.64558      5.87395        -0.112407      0.429920      0.099551
H     10.62451      7.64558     15.10445         0.052499      0.500035      0.281661
H     10.62451     13.33282      5.87395         0.096295     -0.405364     -0.197314
H     10.35389     13.33282     15.10445        -0.137481     -0.565688      0.174032
H      7.64558      5.87395     10.35389         0.491750     -0.037755     -0.049930
H      7.64558     15.10445     10.62451         0.300772      0.028905     -0.029057
H     13.33282      5.87395     10.62451        -0.196366     -0.083160     -0.007921
H     13.33282     15.10445     10.35389        -0.499345      0.088198     -0.017542
H     12.45634     12.45634     19.01126         0.265139      0.247904     -0.245154
H     19.01126     19.01126     19.01126        -0.263298     -0.242571     -0.252307
H     19.01126     12.45634     12.45634        -0.265781      0.261748      0.232716
H     12.45634     19.01126     12.45634         0.275059     -0.255368      0.225990
C     10.35284      5.61067      6.59456        -0.143161     -0.317067     -1.784408
C     10.62556     15.36773      6.59456         0.422906      0.134125     -1.853634
C     10.62556      5.61067     14.38384        -0.349124     -0.124028      1.708768
C     10.35284     15.36773     14.38384         0.226873      0.147176      1.621091
C      6.59456     10.35284      5.61067        -0.937602     -0.120523     -0.323843
C      6.59456     10.62556     15.36773        -0.831032     -0.007768      0.118788
C     14.38384     10.62556      5.61067         1.031279      0.042290     -0.236843
C     14.38384     10.35284     15.36773         0.773078     -0.024170      0.169390
C      5.61067      6.59456     10.35284        -0.102630     -1.665707      0.066980
C     15.36773      6.59456     10.62556         0.320886     -0.909465      0.036965
C      5.61067     14.38384     10.62556        -0.422919      0.800971      0.044700
C     15.36773     14.38384     10.35284         0.060001      1.804511     -0.074552
C      5.61067     10.35284      6.59456        -0.770438      0.293565     -1.841244
C     15.36773     10.62556      6.59456         0.732480     -0.212573     -1.929744
C      5.61067     10.62556     14.38384        -0.674298      0.090227      1.613442
C     15.36773     10.35284     14.38384         0.555600     -0.060716      1.393360
C     10.35284      6.59456      5.61067         0.026282     -1.537812     -0.745040
C     10.62556      6.59456     15.36773        -0.049866     -1.912495      0.696528
C     10.62556     14.38384      5.61067         0.088393      1.833063     -0.852491
C     10.35284     14.38384     15.36773         0.036396      1.853037      0.611205
C      6.59456      5.61067     10.35284        -0.891230     -0.812827     -0.033702
C      6.59456     15.36773     10.62556        -1.025932      0.572823      0.073476
C     14.38384      5.61067     10.62556         0.952301     -0.681876      0.088800
C     14.38384     15.36773     10.35284         0.874566      0.871699     -0.003427
C     10.40319      3.19606      7.29314        -0.005046      0.529310     -0.578478
C     10.35913      4.25547      6.23373        -0.008400     -0.829699      0.538354
C      0.08601      7.29314      7.29314         0.013788     -0.464375     -0.572403
C      0.13007      6.23373      6.23373         0.059056      0.846914      0.449090
C      0.08601      3.19606      3.19606         0.027647      0.692528      0.462966
C      0.13007      4.25547      4.25547        -0.041580     -0.739183     -0.484297
C     10.40319      7.29314      3.19606        -0.017804     -0.821660      0.480492
C     10.35913      6.23373      4.25547         0.008678      0.562086     -0.510161
C      7.29314     10.40319      3.19606        -0.315092     -0.006633      0.499435
C      6.23373     10.35913      4.25547         0.187856     -0.078333     -0.148010
C      7.29314      0.08601      7.29314        -0.254661     -0.030779     -0.379146
C      6.23373      0.13007      6.23373         0.154808     -0.095562      0.371005
C      3.19606      0.08601      3.19606         0.422793      0.013864      0.484749
C      4.25547      0.13007      4.25547        -0.205557      0.069822     -0.197328
C      3.19606     10.40319      7.29314         0.220333      0.034310     -0.507775
C      4.25547     10.35913      6.23373        -0.189465      0.105511      0.340556
C      3.19606      7.29314     10.40319         0.171599     -0.318948      0.009296
C      4.25547      6.23373     10.35913        -0.570080      0.174351      0.052991
C      7.29314      7.29314      0.08601        -0.587571     -0.467099      0.003369
C      6.23373      6.23373      0.13007         0.120094      0.192635     -0.058426
C      3.19606      3.19606      0.08601         0.558133      0.462990      0.004891
C      4.25547      4.25547      0.13007        -0.068297     -0.101407     -0.036792
C      7.29314      3.19606     10.40319        -0.219138      0.335430      0.010896
C      6.23373      4.25547     10.35913         0.590510     -0.247884      0.017426
O     10.43466      3.58206      8.50569         0.016386      0.237821      0.499403
O     10.54374     17.39634      8.50569        -0.028933     -0.239147      0.515851
O     10.54374      3.58206     12.47271         0.080885      0.159723     -0.396518
O     10.43466     17.39634     12.47271        -0.101323     -0.117074     -0.354341
O      8.50569     10.43466      3.58206         0.413239     -0.021596      0.075385
O      8.50569     10.54374     17.39634         0.470471      0.059475     -0.124929
O     12.47271     10.54374      3.58206        -0.501968     -0.010057      0.092949
O     12.47271     10.43466     17.39634        -0.416125     -0.054353     -0.103061
O      3.58206      8.50569     10.43466         0.164510      0.424696     -0.056149
O     17.39634      8.50569     10.54374        -0.089227      0.563964      0.048442
O      3.58206     12.47271     10.54374         0.048401     -0.533942      0.038864
O     17.39634     12.47271     10.43466        -0.173520     -0.453771     -0.025245
O      3.58206     10.43466      8.50569         0.188472     -0.014330      0.493402
O     17.39634     10.54374      8.50569        -0.123730     -0.009489      0.458521
O      3.58206     10.54374     12.47271         0.178704      0.089077     -0.485335
O     17.39634     10.43466     12.47271        -0.191072     -0.081757     -0.526946
O     10.43466      8.50569      3.58206         0.047382      0.664872      0.270949
O     10.54374      8.50569     17.39634         0.057285      0.490134     -0.211021
O     10.54374     12.47271      3.58206        -0.019998     -0.633961      0.268452
O     10.43466     12.47271     17.39634        -0.033692     -0.526444     -0.219410
O      8.50569      3.58206     10.43466         0.517530      0.151555     -0.030930
O      8.50569     17.39634     10.54374         0.621765     -0.095457      0.045469
O     12.47271      3.58206     10.54374        -0.625799      0.101975      0.035503
O     12.47271     17.39634     10.43466        -0.485307     -0.138263     -0.017248
O     11.90042     11.90042     19.56718        -0.307288     -0.283784      0.270910
O     19.56718     19.56718     19.56718         0.315576      0.270275      0.290138
O     19.56718     11.90042     11.90042         0.324355     -0.307398     -0.235621
O     11.90042     19.56718     11.90042        -0.328756      0.281167     -0.223632
O      9.45224      1.03696      9.45224        -0.030740      0.060711     -0.065788
O      1.03696      9.45224      9.45224         0.036821     -0.079840     -0.058928
O      1.03696      1.03696      1.03696         0.034195      0.051550      0.131366
O      9.45224      9.45224      1.03696        -0.024287     -0.089326      0.134551
Zr     10.48920      2.52580     10.48920        -0.107653     -0.130452     -0.012326
Zr     10.48920     18.45260     10.48920         0.110480      0.188932     -0.102075
Zr     10.48920     10.48920      2.52580        -0.009714      0.111123     -0.320725
Zr     10.48920     10.48920     18.45260        -0.034528     -0.014364      0.145432
Zr      2.52580     10.48920     10.48920        -0.048885     -0.030036     -0.050602
Zr     18.45260     10.48920     10.48920         0.089367      0.111196     -0.144006
Pd     12.90998      8.09532      7.61084        -0.000291     -0.007214     -0.002079
Pd      9.57303     14.56880     11.75097         0.007776     -0.003969      0.014582
Pd     12.30156     10.86450     10.41921         0.011706     -0.003495     -0.020207
Pd     14.63539      9.94591     11.58388        -0.013260      0.006475      0.005071
Pd     10.92011      9.33468      6.10514        -0.017908     -0.001025      0.003885
Pd      6.88713      8.54852      8.97402        -0.005431      0.006971     -0.004830
Ir     10.24221     11.84107     11.75229        -0.002900     -0.003295      0.011758
Ir     12.87537      8.25925     10.29032        -0.003484      0.012286     -0.006134
Ir     12.28152     10.96929      7.71752        -0.008275     -0.004084     -0.018651
Ir      9.68003     14.38624      9.15845         0.005568      0.000960      0.010789
Ir     10.76372      9.16795     11.69894        -0.006479     -0.014603      0.004114
Ir      8.66601     10.08476      7.74849        -0.015402      0.006477      0.003603
Ir     13.85106     12.48775      9.04993         0.015106      0.004143     -0.027994
Ir     11.96492     13.55139      7.82301        -0.008358      0.008778      0.001283
Ir     14.27426      9.87878      9.00753        -0.006088     -0.012401     -0.009394
Ir      9.16415      7.44129     10.35559         0.008096     -0.002868      0.018554
Ir      8.14958     12.76927      7.83114         0.008169      0.007671     -0.012435
Ir      9.10903      7.61083      7.79207        -0.004156     -0.020138      0.006113
Ir     11.86108     13.48481     13.02637        -0.011385     -0.010313     -0.011039
Ir     11.34198      6.66622     11.67884        -0.005195      0.018067      0.004998
Ir     10.22855     11.81424      9.07403         0.005288     -0.003714     -0.006234
Ir     12.85802      8.29314     12.94725        -0.009741      0.026054      0.006596
Ir     10.78241      9.15223      8.96292         0.016088      0.003920     -0.012677
Ir     11.78380     13.56883     10.41833         0.033158     -0.000699      0.005659
Ir     13.82507     12.56515     11.77688         0.015570      0.017939     -0.001107
Ir     12.35401     10.95641     13.08144        -0.000660      0.011140     -0.009396
Ir     10.10278     11.72480      6.48729        -0.009322     -0.015191      0.007279
Ir     11.27757      6.57130      9.18009         0.003468     -0.002403      0.006373
Ir      7.16415      8.36730     11.78724        -0.001251      0.001221      0.008525
Ir      8.16511     12.70955     10.42944        -0.003909      0.011997      0.015165
Ir     10.85180      9.25154     14.25866        -0.006715      0.007543     -0.023772
Ir      8.06958     12.53631     12.98204         0.011646     -0.014259      0.010590
Ir      6.54149     11.28573      9.05741        -0.006421     -0.008012      0.006011
Ir      8.62815     10.04492     13.04255        -0.002377     -0.011689     -0.019591
Ir      6.54846     10.91418     11.52080         0.011180      0.016150     -0.015064
Ir      9.10169      7.46072     13.02216        -0.019858      0.024047      0.000512
Ir     10.17714     11.64850     14.35687         0.003960     -0.009210     -0.015428
Ir      8.68856     10.06565     10.38917        -0.014432     -0.006502      0.003892
