37
# total energy = -244.51540062 eVH      6.49490     11.07237      7.49840         0.000000     -0.075331      0.000000
H      6.49490      1.91743      7.49840         0.000000      0.075331      0.000000
H      1.91743      6.49490      7.49840         0.075331      0.000000      0.000000
H     11.07237      6.49490      7.49840        -0.075331      0.000000      0.000000
C      6.49490      9.98281      7.49840         0.000000      0.195816      0.000000
C      6.49490      3.00699      7.49840         0.000000     -0.195816     -0.000000
C      3.00699      6.49490      7.49840        -0.195816      0.000000      0.000000
C      9.98281      6.49490      7.49840         0.195816      0.000000     -0.000000
C      3.52670      7.80908      7.49840         0.056014      0.231847      0.000000
C      9.46310      5.18072      7.49840        -0.056014     -0.231847     -0.000000
C      5.18072      3.52670      7.49840        -0.231847      0.056014     -0.000000
C      7.80908      9.46310      7.49840         0.231847     -0.056014      0.000000
C      9.46310      7.80908      7.49840        -0.056014      0.231847     -0.000000
C      3.52670      5.18072      7.49840         0.056014     -0.231847      0.000000
C      7.80908      3.52670      7.49840         0.231847      0.056014      0.000000
C      5.18072      9.46310      7.49840        -0.231847     -0.056014     -0.000000
C     12.26293      0.72687      7.49840        -0.614747      0.614747      0.000000
C      0.72687     12.26293      7.49840         0.614747     -0.614747     -0.000000
C     12.26293     12.26293      7.49840        -0.614747     -0.614747      0.000000
C      0.72687      0.72687      7.49840         0.614747      0.614747     -0.000000
N      4.88360      8.10620      7.49840         0.016791     -0.016791      0.000000
N      8.10620      4.88360      7.49840        -0.016791      0.016791      0.000000
N      4.88360      4.88360      7.49840         0.016791      0.016791      0.000000
N      8.10620      8.10620      7.49840        -0.016791     -0.016791      0.000000
O      8.67962     10.40079      7.49840        -0.117292     -0.038200      0.000000
O      4.31018      2.58901      7.49840         0.117292      0.038200     -0.000000
O      2.58901      8.67962      7.49840         0.038200     -0.117292      0.000000
O     10.40079      4.31018      7.49840        -0.038200      0.117292      0.000000
O      4.31018     10.40079      7.49840         0.117292     -0.038200     -0.000000
O      8.67962      2.58901      7.49840        -0.117292      0.038200      0.000000
O     10.40079      8.67962      7.49840        -0.038200     -0.117292      0.000000
O      2.58901      4.31018      7.49840         0.038200      0.117292     -0.000000
Au     10.89282      2.09698      7.49840         0.149863     -0.149863      0.000000
Au      2.09698     10.89282      7.49840        -0.149863      0.149863     -0.000000
Au     10.89282     10.89282      7.49840         0.149863      0.149863      0.000000
Au      2.09698      2.09698      7.49840        -0.149863     -0.149863      0.000000
Au      6.49490      6.49490      7.49840         0.000000      0.000000      0.000000
