152
# total energy = -1090.71630843 eVH     10.35389      5.87395      7.64558         1.085881     -2.291510      1.417401
H     10.62451     15.10445      7.64558        -0.388165      0.907248      1.700737
H     10.62451      5.87395     13.33282         1.172609     -1.228528     -2.414751
H     10.35389     15.10445     13.33282        -0.714315      0.794837     -1.851141
H      7.64558     10.35389      5.87395         0.385641     -0.201252      0.002199
H      7.64558     10.62451     15.10445         0.636542     -0.312867      0.193054
H     13.33282     10.62451      5.87395        -0.452420      0.022891      0.101353
H     13.33282     10.35389     15.10445        -0.580533      0.263503      0.036352
H      5.87395      7.64558     10.35389        -0.345037      1.191191      0.325919
H     15.10445      7.64558     10.62451         0.076828      0.836637     -0.020945
H      5.87395     13.33282     10.62451         0.018833     -0.480830      0.001297
H     15.10445     13.33282     10.35389         0.110552     -0.932963      0.090625
H      5.87395     10.35389      7.64558        -0.024234     -0.010375      0.608146
H     15.10445     10.62451      7.64558         0.102577      0.046367      0.338206
H      5.87395     10.62451     13.33282        -0.180535      0.340495     -0.806853
H     15.10445     10.35389     13.33282         0.284525     -0.280766      0.008957
H     10.35389      7.64558      5.87395        -0.351998      0.483416     -0.320587
H     10.62451      7.64558     15.10445         0.304890      0.929215      0.472581
H     10.62451     13.33282      5.87395        -0.171082     -0.996653     -0.198878
H     10.35389     13.33282     15.10445        -0.220239     -1.024893      0.300301
H      7.64558      5.87395     10.35389         0.961524     -0.334666      0.223191
H      7.64558     15.10445     10.62451         0.838815      0.000162     -0.110473
H     13.33282      5.87395     10.62451        -0.852030     -0.101275      0.160901
H     13.33282     15.10445     10.35389        -0.523355      0.123137      0.036776
H     12.45634     12.45634     19.01126         0.262283      0.250701     -0.241250
H     19.01126     19.01126     19.01126        -0.259102     -0.254996     -0.238688
H     19.01126     12.45634     12.45634        -0.252975      0.264571      0.237302
H     12.45634     19.01126     12.45634         0.253550     -0.262594      0.235493
C     10.35284      5.61067      6.59456        -0.549588     -0.026764     -2.428543
C     10.62556     15.36773      6.59456         0.217700     -0.129993     -1.922974
C     10.62556      5.61067     14.38384        -0.083980     -0.930728      2.615445
C     10.35284     15.36773     14.38384         0.206598      0.127576      1.856109
C      6.59456     10.35284      5.61067        -0.538142     -0.046220     -0.365994
C      6.59456     10.62556     15.36773        -1.043367     -0.013685      0.551189
C     14.38384     10.62556      5.61067         0.599370      0.009360     -0.187712
C     14.38384     10.35284     15.36773         0.817689     -0.114961      0.298282
C      5.61067      6.59456     10.35284        -0.610213     -0.827369      0.314878
C     15.36773      6.59456     10.62556         0.335966     -1.301962     -0.006919
C      5.61067     14.38384     10.62556        -0.447406      0.892109      0.028161
C     15.36773     14.38384     10.35284         0.425039      0.776985      0.083566
C      5.61067     10.35284      6.59456        -0.555722      0.095333     -1.668329
C     15.36773     10.62556      6.59456         0.682620      0.023744     -1.857125
C      5.61067     10.62556     14.38384        -0.692456      0.007036      1.945544
C     15.36773     10.35284     14.38384         0.622735     -0.102520      1.546765
C     10.35284      6.59456      5.61067         0.112150     -1.599987     -0.912347
C     10.62556      6.59456     15.36773         0.058658     -2.297848      1.371494
C     10.62556     14.38384      5.61067         0.124192      1.577983     -0.666640
C     10.35284     14.38384     15.36773         0.008312      2.131969      0.930317
C      6.59456      5.61067     10.35284        -0.634089     -1.034360      0.201128
C      6.59456     15.36773     10.62556        -1.557110      0.353215      0.025618
C     14.38384      5.61067     10.62556         1.998821     -0.783100     -0.081629
C     14.38384     15.36773     10.35284         0.392757      0.807774      0.015796
C     10.40319      3.19606      7.29314        -0.031746      0.632468     -0.288934
C     10.35913      4.25547      6.23373         0.094820     -0.829302      0.776173
C      0.08601      7.29314      7.29314        -0.041148     -0.725114     -0.280851
C      0.13007      6.23373      6.23373        -0.161365      0.845465      0.853286
C      0.08601      3.19606      3.19606        -0.082559      0.463582      0.362430
C      0.13007      4.25547      4.25547         0.054977     -0.921855     -0.598386
C     10.40319      7.29314      3.19606         0.029780     -0.337408      0.262234
C     10.35913      6.23373      4.25547         0.058403      0.702197     -0.549966
C      7.29314     10.40319      3.19606        -0.373014      0.028721      0.583428
C      6.23373     10.35913      4.25547         0.316061      0.012589     -0.421819
C      7.29314      0.08601      7.29314        -0.426643      0.054779     -0.462610
C      6.23373      0.13007      6.23373         0.169740      0.102856      0.568536
C      3.19606      0.08601      3.19606         0.239841      0.018592      0.645844
C      4.25547      0.13007      4.25547        -0.433335      0.150410     -0.345476
C      3.19606     10.40319      7.29314         0.518908     -0.005728     -0.646643
C      4.25547     10.35913      6.23373        -0.378410      0.044705      0.643397
C      3.19606      7.29314     10.40319         0.337197     -0.563813     -0.016932
C      4.25547      6.23373     10.35913        -0.758253      0.346487     -0.115123
C      7.29314      7.29314      0.08601        -0.292191     -0.191080     -0.003196
C      6.23373      6.23373      0.13007         0.074328      0.472246     -0.033847
C      3.19606      3.19606      0.08601         0.421832      0.118287     -0.019266
C      4.25547      4.25547      0.13007        -0.092697     -0.323725     -0.029776
C      7.29314      3.19606     10.40319        -0.411326      0.540809     -0.012885
C      6.23373      4.25547     10.35913         0.534671     -0.714727     -0.081939
O     10.43466      3.58206      8.50569        -0.006769      0.134526      0.265142
O     10.54374     17.39634      8.50569         0.025376     -0.150688      0.286963
O     10.54374      3.58206     12.47271         0.076600      0.188153     -0.360495
O     10.43466     17.39634     12.47271        -0.069172     -0.247193     -0.332161
O      8.50569     10.43466      3.58206         0.477890     -0.011511      0.135481
O      8.50569     10.54374     17.39634         0.468121      0.057165     -0.125958
O     12.47271     10.54374      3.58206        -0.381105      0.031324      0.097712
O     12.47271     10.43466     17.39634        -0.537985     -0.052073     -0.127579
O      3.58206      8.50569     10.43466         0.122784      0.546954     -0.043201
O     17.39634      8.50569     10.54374        -0.148171      0.443160      0.028005
O      3.58206     12.47271     10.54374         0.095074     -0.365907      0.047101
O     17.39634     12.47271     10.43466        -0.199661     -0.610312     -0.013301
O      3.58206     10.43466      8.50569         0.209122     -0.073240      0.583116
O     17.39634     10.54374      8.50569        -0.171419      0.007430      0.496664
O      3.58206     10.54374     12.47271         0.303003     -0.051142     -0.554417
O     17.39634     10.43466     12.47271        -0.196661     -0.016498     -0.563519
O     10.43466      8.50569      3.58206         0.001697      0.456555      0.245692
O     10.54374      8.50569     17.39634         0.101395      0.651604     -0.338780
O     10.54374     12.47271      3.58206         0.013633     -0.575689      0.273157
O     10.43466     12.47271     17.39634        -0.070441     -0.628435     -0.334629
O      8.50569      3.58206     10.43466         0.553893      0.166755     -0.041556
O      8.50569     17.39634     10.54374         0.449513     -0.185290      0.038019
O     12.47271      3.58206     10.54374        -0.498958      0.185698      0.004983
O     12.47271     17.39634     10.43466        -0.537477     -0.165202     -0.026954
O     11.90042     11.90042     19.56718        -0.302712     -0.296267      0.241129
O     19.56718     19.56718     19.56718         0.303846      0.297242      0.236817
O     19.56718     11.90042     11.90042         0.303372     -0.317243     -0.273863
O     11.90042     19.56718     11.90042        -0.295013      0.311389     -0.267718
O      9.45224      1.03696      9.45224        -0.042535      0.037751     -0.115246
O      1.03696      9.45224      9.45224         0.042817     -0.037006     -0.113104
O      1.03696      1.03696      1.03696         0.067639      0.050678      0.075231
O      9.45224      9.45224      1.03696        -0.058863     -0.051620      0.075706
Zr     10.48920      2.52580     10.48920        -0.108233     -0.079602      0.062448
Zr     10.48920     18.45260     10.48920         0.076420      0.086241      0.018795
Zr     10.48920     10.48920      2.52580        -0.001358      0.019420     -0.194371
Zr     10.48920     10.48920     18.45260         0.021235      0.010177      0.268017
Zr      2.52580     10.48920     10.48920        -0.122658      0.007119     -0.024496
Zr     18.45260     10.48920     10.48920         0.174604      0.045395      0.021314
Pd     13.38813      8.52630      7.99491         0.069142     -0.224064     -0.086862
Pd      8.75351     14.02309     11.95016         0.118253      0.367059      0.226526
Pd     12.14399     11.13236     10.65935         0.356160     -0.142144     -0.136260
Pd     14.50763     10.78867     11.80808         0.329692      0.170761     -0.029191
Pd     11.13756      9.10917      6.61760         0.254497     -0.155970     -0.393797
Pd      7.43235      7.49510      9.14686        -0.215115      0.141799     -0.819304
Ir      9.85921     11.55565     11.95742         0.260211      0.440359      0.422154
Ir     13.29128      8.64671     10.67530         0.071991      0.405113     -0.142541
Ir     12.12574     11.07304      7.98190        -0.065847      0.060597     -0.019816
Ir      8.81322     13.82250      9.24846         0.086439      0.509557     -0.073874
Ir     11.03080      9.17173     12.03246        -0.406991     -0.106842      0.170967
Ir      8.70881      9.52912      8.02956        -0.082126      0.014259     -0.090865
Ir     13.30345     12.98439      9.18693         0.487892      0.087255      0.084154
Ir     11.13818     13.39910      7.97189         0.019226      0.312663     -0.356765
Ir     14.34025     10.62354      9.30731        -0.109383     -0.057568     -0.097395
Ir      9.89129      7.03848     10.75365        -0.796618      0.105952      0.300768
Ir      7.63077     11.92232      7.98277         0.005265      0.227459     -0.076006
Ir      9.78689      7.31016      8.17133        -0.393423      0.310379     -0.338312
Ir     11.20733     13.50414     13.19596         0.047030      0.241311      0.119125
Ir     12.12596      6.87059     12.08846        -0.103631     -0.085092     -0.007210
Ir      9.86149     11.45183      9.32482        -0.119257      0.178333     -0.269339
Ir     13.29040      8.65559     13.38554         0.222461      0.155092      0.139747
Ir     11.05856      9.09748      9.38595         0.178910      0.172427     -0.129291
Ir     11.01471     13.55254     10.54458         0.152975      0.431208      0.157376
Ir     13.25899     13.14615     11.93466         0.390170      0.240072     -0.311941
Ir     12.16645     11.19290     13.29634         0.013584      0.088329      0.241079
Ir      9.88140     11.36676      6.68197        -0.125205      0.320392      0.149169
Ir     11.98227      6.70175      9.43448         0.477291     -0.142689      0.151594
Ir      7.53222      7.56114     12.08748         0.446429      0.159455     -0.068639
Ir      7.64375     11.98079     10.63287        -0.240208     -0.054359      0.022009
Ir     11.08578      9.33098     14.61242        -0.198927      0.111341     -0.195243
Ir      7.62603     11.99653     13.26337        -0.490265      0.184228     -0.203009
Ir      6.49534      9.97712      9.41522         0.173895      0.392104     -0.052295
Ir      8.69931      9.65820     13.34745         0.182262     -1.028048     -0.156000
Ir      6.47134      9.86151     11.81708         0.061333      0.193896     -0.228184
Ir      9.60089      7.24923     13.36846        -1.016398      0.809422     -0.461006
Ir      9.83573     11.53887     14.59248         0.381296      0.200682     -0.140702
Ir      8.78952      9.47574     10.68704        -0.999290     -0.109777      0.288053
