35
# total energy = -286.26552362 eVC      6.62253     10.18454      7.54812        -0.002776     -0.034355      0.002750
C      8.01185      9.81070      7.54247        -0.015144      0.000611      0.000240
C      9.29587      5.59642      7.55655        -0.010462     -0.010121     -0.000706
C      1.50672      5.33347      7.55836         0.008409      0.013021     -0.001592
C      4.17982      0.74540      7.57662         0.003613      0.036694     -0.000041
C      2.79038      1.11904      7.56828         0.006258      0.022874      0.003022
C      0.70696      4.14738      7.55918         0.033778      0.005992     -0.001054
C      1.10896      2.76606      7.56099        -0.004516      0.011345      0.003565
C      5.34958      1.56888      7.58233         0.010199      0.011208     -0.003954
C      5.45292      9.36096      7.55460        -0.015239     -0.006059     -0.001549
C     10.09552      6.78252      7.54697        -0.034778     -0.008851      0.001211
C      9.69352      8.16381      7.54164        -0.019473     -0.003959      0.001282
C      0.75317      6.54616      7.55202         0.045675     -0.077660      0.001041
C      1.18497      7.92498      7.54664        -0.001084     -0.044651      0.002614
C     10.04918      4.38369      7.55631        -0.039270      0.081917     -0.000031
C      9.61714      3.00483      7.56069         0.016966      0.048225     -0.001019
C      4.22510     10.08993      7.55025         0.082479     -0.042979      0.000312
C      2.85533      9.63017      7.54524         0.047630      0.003801      0.001351
C      6.57727      0.84012      7.57611        -0.087047      0.036049      0.001461
C      7.94681      1.30001      7.56966        -0.042726     -0.014758      0.000014
N      8.78184      0.21562      7.56546         0.004354      0.033505      0.002201
N      0.08390      8.73784      7.54320         0.025109     -0.001069      0.002467
N      8.43243      8.55854      7.54314         0.082004      0.057317     -0.000080
N      2.36956      2.37170      7.56269        -0.051971     -0.087925      0.004727
N      2.02021     10.71451      7.53875        -0.000547     -0.033419      0.003025
N     10.71824      2.19201      7.55832        -0.027446      0.001585      0.001634
N      2.47536      8.33172      7.54741         0.015750     -0.020180      0.002679
N      8.32706      2.59821      7.56711        -0.024750      0.024010      0.001447
O      5.26360      2.85773      7.59238        -0.016703     -0.025602     -0.008281
O      5.53936      8.07221      7.56311         0.014160      0.022332     -0.004022
O      8.00561      5.65654      7.56581         0.021550      0.014392     -0.002457
O      2.79698      5.27335      7.56416        -0.022363     -0.015840     -0.003900
Pd      6.82352      4.07207      7.57946        -0.007384      0.004700     -0.004987
Pd      3.97943      6.85769      7.56310         0.003891     -0.003527     -0.005038
Pd      0.02539     10.73155      7.53893         0.001853      0.001379      0.001670
