152
# total energy = -1004.56675926 eVH     10.35389      5.87395      7.64558        -0.102651      0.093608      0.679220
H     10.62451     15.10445      7.64558        -0.076239     -0.189304      0.527555
H     10.62451      5.87395     13.33282         0.407904      0.017356     -0.869523
H     10.35389     15.10445     13.33282         0.046535     -0.166784     -0.493164
H      7.64558     10.35389      5.87395         0.359284      0.040875      0.152941
H      7.64558     10.62451     15.10445         0.982008      0.629402      0.017193
H     13.33282     10.62451      5.87395        -0.489252      0.185580      0.113603
H     13.33282     10.35389     15.10445        -0.836958     -0.246206      0.039567
H      5.87395      7.64558     10.35389         0.245129      1.719148      0.195884
H     15.10445      7.64558     10.62451        -0.096599      0.514573      0.251813
H      5.87395     13.33282     10.62451         0.195227     -0.570290     -0.014391
H     15.10445     13.33282     10.35389         0.104860     -1.199540     -0.419265
H      5.87395     10.35389      7.64558         0.149693      0.042927      0.486261
H     15.10445     10.62451      7.64558        -0.194059      0.743791      1.192863
H      5.87395     10.62451     13.33282         0.005864      0.515529     -1.177749
H     15.10445     10.35389     13.33282         0.030359     -0.192725     -0.785979
H     10.35389      7.64558      5.87395         0.163694      1.354898      0.087786
H     10.62451      7.64558     15.10445         0.517036      0.758384     -0.110341
H     10.62451     13.33282      5.87395        -0.355306     -0.667226      0.310102
H     10.35389     13.33282     15.10445        -0.260504     -0.478859     -0.331760
H      7.64558      5.87395     10.35389         1.125851     -0.180985     -0.100386
H      7.64558     15.10445     10.62451         0.826728     -0.193180     -0.016109
H     13.33282      5.87395     10.62451        -0.582064      0.134229      0.621791
H     13.33282     15.10445     10.35389        -0.579567     -0.035538     -0.259337
H     12.45634     12.45634     19.01126         0.266278      0.259751     -0.229153
H     19.01126     19.01126     19.01126        -0.272572     -0.259549     -0.222796
H     19.01126     12.45634     12.45634        -0.278159      0.257860      0.223830
H     12.45634     19.01126     12.45634         0.240369     -0.278147      0.247385
C     10.35284      5.61067      6.59456        -0.173960     -0.816368     -0.321130
C     10.62556     15.36773      6.59456         0.033552      0.224251     -0.373042
C     10.62556      5.61067     14.38384        -0.035429     -0.389629      0.590103
C     10.35284     15.36773     14.38384         0.002520      0.277235      0.497159
C      6.59456     10.35284      5.61067        -0.450389      0.040893     -0.286737
C      6.59456     10.62556     15.36773        -0.901670      0.149016      0.696796
C     14.38384     10.62556      5.61067         0.551243     -0.064167     -0.868504
C     14.38384     10.35284     15.36773         0.939186     -0.113640      0.320166
C      5.61067      6.59456     10.35284        -0.871234     -0.811482     -0.387555
C     15.36773      6.59456     10.62556         0.679235     -0.020535     -0.268986
C      5.61067     14.38384     10.62556        -0.231268      0.628769      0.010404
C     15.36773     14.38384     10.35284         0.327789      1.156483      0.081390
C      5.61067     10.35284      6.59456        -0.273104      0.017608     -0.719095
C     15.36773     10.62556      6.59456         0.561162     -0.237059     -0.630717
C      5.61067     10.62556     14.38384        -0.557364     -0.012138      0.731429
C     15.36773     10.35284     14.38384         0.511026     -0.088383      1.073669
C     10.35284      6.59456      5.61067        -0.048700     -0.916446     -0.395855
C     10.62556      6.59456     15.36773         0.136536     -0.795892      0.496818
C     10.62556     14.38384      5.61067         0.088179      1.138790     -0.298645
C     10.35284     14.38384     15.36773        -0.026439      1.095356      0.525891
C      6.59456      5.61067     10.35284        -0.421150     -1.232952      0.111549
C      6.59456     15.36773     10.62556        -0.986752      0.183504      0.102927
C     14.38384      5.61067     10.62556        -0.143409     -0.467463     -0.321039
C     14.38384     15.36773     10.35284         0.296062      0.532265     -0.047018
C     10.40319      3.19606      7.29314         0.013672      0.924028     -0.502253
C     10.35913      4.25547      6.23373         0.052727     -0.566512      0.127832
C      0.08601      7.29314      7.29314        -0.028788     -0.983566     -0.204964
C      0.13007      6.23373      6.23373        -0.098841      0.281206      0.317539
C      0.08601      3.19606      3.19606         0.051838      1.369945      0.152636
C      0.13007      4.25547      4.25547        -0.038870     -0.372547     -0.338993
C     10.40319      7.29314      3.19606        -0.000726     -0.473161      0.273766
C     10.35913      6.23373      4.25547        -0.009659      0.107371     -0.764895
C      7.29314     10.40319      3.19606        -0.281132      0.017975      0.552951
C      6.23373     10.35913      4.25547         0.202268      0.086004     -0.111885
C      7.29314      0.08601      7.29314        -1.020046     -0.101574     -0.361860
C      6.23373      0.13007      6.23373         0.702993     -0.205135      0.456673
C      3.19606      0.08601      3.19606         1.243231     -0.018952      0.468507
C      4.25547      0.13007      4.25547        -0.684895     -0.186363     -0.342761
C      3.19606     10.40319      7.29314         0.573883      0.019198     -0.399461
C      4.25547     10.35913      6.23373        -0.234255      0.105942      0.226627
C      3.19606      7.29314     10.40319         0.351232     -0.926837      0.033822
C      4.25547      6.23373     10.35913        -1.112649      0.155716      0.182300
C      7.29314      7.29314      0.08601        -0.476753     -0.503902     -0.014552
C      6.23373      6.23373      0.13007         0.487723      0.320987      0.011559
C      3.19606      3.19606      0.08601         0.518831      0.408599     -0.026417
C      4.25547      4.25547      0.13007        -0.042901     -0.715926     -0.093559
C      7.29314      3.19606     10.40319        -0.399018      0.506690      0.054808
C      6.23373      4.25547     10.35913         0.535654     -0.707054      0.220720
O     10.43466      3.58206      8.50569        -0.009952      0.061273      0.468974
O     10.54374     17.39634      8.50569         0.057454     -0.020454      0.252179
O     10.54374      3.58206     12.47271        -0.001292     -0.100927     -0.106889
O     10.43466     17.39634     12.47271        -0.037554     -0.139071     -0.494314
O      8.50569     10.43466      3.58206         0.339260     -0.023553      0.034621
O      8.50569     10.54374     17.39634         0.848780     -0.050105     -0.151021
O     12.47271     10.54374      3.58206        -0.887806      0.097424      0.043584
O     12.47271     10.43466     17.39634        -0.579597      0.023554     -0.138155
O      3.58206      8.50569     10.43466         0.192082      0.920911     -0.019366
O     17.39634      8.50569     10.54374        -0.150288      0.673556      0.046058
O      3.58206     12.47271     10.54374         0.104039     -0.543998      0.050835
O     17.39634     12.47271     10.43466        -0.167103     -0.604415     -0.032506
O      3.58206     10.43466      8.50569         0.077334     -0.064390      0.476028
O     17.39634     10.54374      8.50569         0.016884      0.096673      0.401860
O      3.58206     10.54374     12.47271        -0.030353      0.028062     -0.369278
O     17.39634     10.43466     12.47271        -0.218287     -0.033497     -0.681105
O     10.43466      8.50569      3.58206        -0.036367      0.558619      0.158322
O     10.54374      8.50569     17.39634        -0.086787      0.787331     -0.224040
O     10.54374     12.47271      3.58206         0.075834     -0.942763      0.103454
O     10.43466     12.47271     17.39634         0.075104     -0.770298     -0.201459
O      8.50569      3.58206     10.43466         0.570476      0.143846     -0.048668
O      8.50569     17.39634     10.54374         0.554907     -0.151406     -0.001185
O     12.47271      3.58206     10.54374        -0.683484      0.152731      0.022403
O     12.47271     17.39634     10.43466        -0.407337     -0.039572     -0.036904
O     11.90042     11.90042     19.56718        -0.313801     -0.295700      0.235573
O     19.56718     19.56718     19.56718         0.311348      0.303585      0.216914
O     19.56718     11.90042     11.90042         0.328196     -0.268732     -0.231536
O     11.90042     19.56718     11.90042        -0.257734      0.339640     -0.274417
O      9.45224      1.03696      9.45224        -0.018856      0.080047     -0.133058
O      1.03696      9.45224      9.45224         0.067550     -0.045923     -0.142589
O      1.03696      1.03696      1.03696         0.088414      0.123263      0.068903
O      9.45224      9.45224      1.03696        -0.074693     -0.065648      0.050164
Zr     10.48920      2.52580     10.48920        -0.047056     -0.206892      0.017710
Zr     10.48920     18.45260     10.48920        -0.020270      0.095133      0.190781
Zr     10.48920     10.48920      2.52580        -0.261237     -0.439303     -0.306353
Zr     10.48920     10.48920     18.45260         0.053956      0.033270      0.435276
Zr      2.52580     10.48920     10.48920        -0.229207      0.129082      0.042652
Zr     18.45260     10.48920     10.48920         0.180550     -0.013527     -0.028465
Pd     13.09570      8.56514      9.74286         0.061790     -0.043425     -0.006735
Pd      6.11332      9.68773     10.18638        -0.053218     -0.064097     -0.044496
Pd      6.95876     11.60123     11.76691         0.044369      0.017256      0.010627
Pd     12.32105     13.11992      7.37204        -0.009751      0.104044      0.092684
Pd     12.12358      7.76755      7.04315        -0.035116     -0.025168     -0.027690
Pd      8.47244      7.25879      6.91052         0.005806     -0.048423     -0.060054
Pd     11.27149     11.38973      5.55063         0.001479      0.040216      0.066885
Pd     14.52724      8.74213      7.45602         0.093094      0.037966     -0.082494
Pd      9.94401     11.81874      7.98628        -0.121626     -0.059808      0.123402
Pd      7.00657      7.09246     12.06427        -0.003232     -0.032265      0.035628
Pd      6.35401      7.48296      8.41651        -0.032990      0.023615      0.028463
Pd      7.20546      9.09361     13.72314         0.055949     -0.025302     -0.119231
Pd     11.46188      6.39793      9.21996         0.037784     -0.018445     -0.042672
Pd      9.96783      9.47127      6.66319         0.000625     -0.003084      0.008865
Pd      9.05301     14.02536      9.34178         0.056932     -0.121344      0.028619
Pd     10.83515      7.46275     11.44226        -0.015693      0.063431      0.175801
Pd     10.47997      9.12950      9.32426         0.160265      0.104029     -0.024109
Pd      9.51091     11.52202     10.60062        -0.133828      0.006699     -0.032445
Pd      8.88740      7.11442      9.58660        -0.091044     -0.089336     -0.047282
Pd      9.19123      7.42182     13.46541        -0.041382      0.049047     -0.002294
Pd      8.52954      9.20208     11.31583        -0.024909     -0.055237      0.112490
Pd     12.27956     10.39207      7.83170         0.009126     -0.060930     -0.017000
Pd      7.31158     11.98187      9.14993         0.050083     -0.011223      0.013926
Pd      8.07101      9.57790      8.43575        -0.039576      0.034688      0.047828
Pd     14.04603      6.36101      8.49431        -0.029527      0.017961      0.012585
Pd     13.10803      8.51169     12.38472        -0.029749     -0.000523     -0.059970
Pd      8.96527     11.44618     13.40258        -0.061218     -0.013668     -0.042387
Pd     13.87328     11.97648      9.15303         0.052340      0.110533     -0.114275
Pd     13.14380     11.17334     13.19969        -0.021598     -0.061150      0.018530
Pd     14.70654     10.36327     11.09213         0.026600     -0.031139     -0.053419
Pd     12.06432     10.80194     10.71792        -0.078712     -0.127690      0.103095
Pd     11.51520     13.32824      9.88278        -0.009593     -0.001725     -0.188351
Pd     13.61559     13.18807     11.63081         0.071305     -0.028574     -0.035468
Pd     11.13007     12.79078     12.43811        -0.009232     -0.060474      0.169147
Pd     11.18045     11.58669     14.90665         0.053173      0.002390     -0.014668
Pd     10.84620      9.74690     12.82141        -0.045423     -0.039609     -0.017631
Pd      9.56104      9.51591     15.20608        -0.091240     -0.082340     -0.049631
Pd      8.71144     13.71946     11.99994        -0.079194      0.035553     -0.017216
