152
# total energy = -1005.22624140 eVH     10.35389      5.87395      7.64558         0.166498      0.103471      0.575932
H     10.62451     15.10445      7.64558        -0.126956     -0.142377      0.515191
H     10.62451      5.87395     13.33282         0.562910      0.077932     -0.867940
H     10.35389     15.10445     13.33282         0.017926     -0.153783     -0.392553
H      7.64558     10.35389      5.87395         0.357166      0.040906      0.167748
H      7.64558     10.62451     15.10445         0.940097      0.564160      0.021274
H     13.33282     10.62451      5.87395        -0.444384      0.358391      0.096671
H     13.33282     10.35389     15.10445        -0.830122     -0.070737     -0.012665
H      5.87395      7.64558     10.35389         0.325475      1.284100      0.038091
H     15.10445      7.64558     10.62451        -0.105705      0.504518      0.329798
H      5.87395     13.33282     10.62451         0.177915     -0.599376      0.054391
H     15.10445     13.33282     10.35389        -0.095408     -0.960064     -0.189874
H      5.87395     10.35389      7.64558         0.219423      0.055657      0.446465
H     15.10445     10.62451      7.64558        -0.145323      0.541548      0.784013
H      5.87395     10.62451     13.33282         0.000673      0.471709     -1.109538
H     15.10445     10.35389     13.33282        -0.083837     -0.033273     -0.629467
H     10.35389      7.64558      5.87395         0.319376      1.196844      0.080489
H     10.62451      7.64558     15.10445         0.651372      0.697320     -0.222414
H     10.62451     13.33282      5.87395        -0.390862     -0.826697      0.289208
H     10.35389     13.33282     15.10445        -0.113269     -0.477119     -0.293895
H      7.64558      5.87395     10.35389         0.825437      0.063140     -0.193097
H      7.64558     15.10445     10.62451         0.808707     -0.173372      0.017154
H     13.33282      5.87395     10.62451        -0.719573      0.160253      0.538347
H     13.33282     15.10445     10.35389        -0.373949     -0.121020     -0.084846
H     12.45634     12.45634     19.01126         0.246494      0.274076     -0.231986
H     19.01126     19.01126     19.01126        -0.278076     -0.251984     -0.234884
H     19.01126     12.45634     12.45634        -0.279497      0.262382      0.217960
H     12.45634     19.01126     12.45634         0.236231     -0.260411      0.275135
C     10.35284      5.61067      6.59456        -0.293672     -0.780730     -0.147020
C     10.62556     15.36773      6.59456         0.056127      0.307101     -0.280611
C     10.62556      5.61067     14.38384        -0.148370     -0.500356      0.370612
C     10.35284     15.36773     14.38384         0.022718      0.180152      0.338235
C      6.59456     10.35284      5.61067        -0.398507      0.008684     -0.237019
C      6.59456     10.62556     15.36773        -0.731377      0.110635      0.667085
C     14.38384     10.62556      5.61067        -0.264038     -0.445912     -0.696049
C     14.38384     10.35284     15.36773         1.032684     -0.084559      0.174671
C      5.61067      6.59456     10.35284        -0.742845     -0.294020     -0.341921
C     15.36773      6.59456     10.62556         0.528133      0.052205     -0.398055
C      5.61067     14.38384     10.62556        -0.199163      0.591193     -0.010934
C     15.36773     14.38384     10.35284         0.267354      0.957933      0.020751
C      5.61067     10.35284      6.59456        -0.304011      0.013599     -0.803252
C     15.36773     10.62556      6.59456         0.510197     -0.225183      0.219277
C      5.61067     10.62556     14.38384        -0.736837      0.009365      0.705220
C     15.36773     10.35284     14.38384         0.416757     -0.030879      0.988913
C     10.35284      6.59456      5.61067        -0.144934     -0.792143     -0.556061
C     10.62556      6.59456     15.36773        -0.034759     -0.504182      0.567815
C     10.62556     14.38384      5.61067         0.191700      1.216463     -0.355817
C     10.35284     14.38384     15.36773        -0.005205      0.863697      0.383425
C      6.59456      5.61067     10.35284         0.177343     -1.086433      0.294585
C      6.59456     15.36773     10.62556        -0.963680      0.230712      0.089913
C     14.38384      5.61067     10.62556         0.296298     -0.611439     -0.352306
C     14.38384     15.36773     10.35284         0.140060      0.357148     -0.072940
C     10.40319      3.19606      7.29314         0.003587      0.860868     -0.433955
C     10.35913      4.25547      6.23373         0.065888     -0.528179      0.122092
C      0.08601      7.29314      7.29314        -0.042496     -0.892555     -0.220629
C      0.13007      6.23373      6.23373        -0.055425      0.230187      0.423279
C      0.08601      3.19606      3.19606         0.020723      1.421757      0.253510
C      0.13007      4.25547      4.25547         0.003221     -0.591760     -0.283626
C     10.40319      7.29314      3.19606        -0.000595     -0.332053      0.260986
C     10.35913      6.23373      4.25547         0.033598      0.024867     -0.729665
C      7.29314     10.40319      3.19606        -0.273219      0.017742      0.521898
C      6.23373     10.35913      4.25547         0.134447      0.041512     -0.055685
C      7.29314      0.08601      7.29314        -0.893264     -0.079080     -0.297847
C      6.23373      0.13007      6.23373         0.832681     -0.192990      0.411460
C      3.19606      0.08601      3.19606         0.845440     -0.034806      0.553369
C      4.25547      0.13007      4.25547        -0.523870     -0.111731     -0.663839
C      3.19606     10.40319      7.29314         0.546517     -0.013693     -0.798248
C      4.25547     10.35913      6.23373        -0.252022      0.062705      0.218114
C      3.19606      7.29314     10.40319         0.310571     -1.342060      0.018484
C      4.25547      6.23373     10.35913        -1.092931      0.019274      0.118351
C      7.29314      7.29314      0.08601        -0.454903     -0.442671     -0.014897
C      6.23373      6.23373      0.13007         0.604378      0.233395      0.024854
C      3.19606      3.19606      0.08601         0.459295      0.341772     -0.036596
C      4.25547      4.25547      0.13007        -0.141645     -0.580204     -0.048323
C      7.29314      3.19606     10.40319        -0.405299      0.464310      0.055372
C      6.23373      4.25547     10.35913         0.268737     -0.761285      0.141950
O     10.43466      3.58206      8.50569        -0.018856      0.048054      0.437767
O     10.54374     17.39634      8.50569         0.069188     -0.060892      0.310905
O     10.54374      3.58206     12.47271         0.026713     -0.122770     -0.131084
O     10.43466     17.39634     12.47271        -0.026214     -0.166574     -0.519208
O      8.50569     10.43466      3.58206         0.287330     -0.022034      0.012634
O      8.50569     10.54374     17.39634         0.814659     -0.050214     -0.174232
O     12.47271     10.54374      3.58206        -0.764438      0.096439      0.083912
O     12.47271     10.43466     17.39634        -0.469600      0.034662     -0.065744
O      3.58206      8.50569     10.43466         0.148640      1.109933     -0.034046
O     17.39634      8.50569     10.54374        -0.158415      0.602652      0.065719
O      3.58206     12.47271     10.54374         0.099035     -0.436237      0.033363
O     17.39634     12.47271     10.43466        -0.144428     -0.569861     -0.031826
O      3.58206     10.43466      8.50569         0.056450     -0.090232      0.612747
O     17.39634     10.54374      8.50569        -0.019810      0.092843      0.401136
O      3.58206     10.54374     12.47271         0.034777      0.036581     -0.500414
O     17.39634     10.43466     12.47271        -0.224704     -0.045003     -0.640664
O     10.43466      8.50569      3.58206        -0.041122      0.451600      0.141151
O     10.54374      8.50569     17.39634        -0.072421      0.733483     -0.227145
O     10.54374     12.47271      3.58206         0.029594     -0.991621      0.123446
O     10.43466     12.47271     17.39634         0.062538     -0.804078     -0.220790
O      8.50569      3.58206     10.43466         0.588432      0.149939     -0.054683
O      8.50569     17.39634     10.54374         0.544597     -0.178308     -0.002270
O     12.47271      3.58206     10.54374        -0.611581      0.192259      0.001941
O     12.47271     17.39634     10.43466        -0.254411      0.080903     -0.044468
O     11.90042     11.90042     19.56718        -0.266288     -0.314098      0.223847
O     19.56718     19.56718     19.56718         0.327073      0.293986      0.236491
O     19.56718     11.90042     11.90042         0.318067     -0.260392     -0.234385
O     11.90042     19.56718     11.90042        -0.242626      0.298876     -0.335846
O      9.45224      1.03696      9.45224         0.001704      0.063079     -0.139395
O      1.03696      9.45224      9.45224         0.078744     -0.077042     -0.181312
O      1.03696      1.03696      1.03696         0.103812      0.168155      0.029206
O      9.45224      9.45224      1.03696        -0.092522     -0.111135      0.008600
Zr     10.48920      2.52580     10.48920        -0.085499     -0.206950     -0.021464
Zr     10.48920     18.45260     10.48920        -0.102118      0.182343      0.205860
Zr     10.48920     10.48920      2.52580        -0.069956     -0.447949     -0.188214
Zr     10.48920     10.48920     18.45260        -0.129747      0.059159      0.455647
Zr      2.52580     10.48920     10.48920        -0.329150      0.306308      0.332660
Zr     18.45260     10.48920     10.48920         0.155507      0.013902     -0.086045
Pd     13.61617      8.94938      9.12325         0.002184      0.025933     -0.051614
Pd      5.67957      9.71195      9.93326         0.030052     -0.015052      0.031831
Pd      6.87477     11.27964     11.71918         0.028515      0.079453     -0.007608
Pd     12.15752     13.14112      7.37836         0.030099     -0.004456     -0.042425
Pd     12.10600      7.89430      7.15040        -0.032163     -0.029562      0.013843
Pd      8.28235      7.07320      6.54084         0.019597     -0.009246      0.040355
Pd     10.82471     11.31934      5.59837         0.058191     -0.027625     -0.028561
Pd     14.64991      8.54181      6.69648         0.011580     -0.020644     -0.019502
Pd      9.63250     11.78476      8.03951        -0.012187      0.053309     -0.008528
Pd      6.69126      6.81144     12.29470        -0.018900     -0.033099      0.026154
Pd      6.39513      7.51953      8.29419         0.007075      0.019033     -0.024284
Pd      7.03651      8.92228     13.83834         0.014009     -0.065018      0.005446
Pd     11.70600      6.54603      9.44025        -0.114788      0.058022      0.014141
Pd      9.75517      9.29409      6.89519        -0.002070     -0.044504      0.026792
Pd      9.04883     13.95959      9.43255        -0.021818      0.019360     -0.021500
Pd     10.08780      7.04417     11.46823        -0.052440      0.058007      0.044492
Pd     10.54418      8.95562      9.51395        -0.007253     -0.057551      0.042603
Pd      9.38305     11.24687     10.63043        -0.028487     -0.016181      0.002741
Pd      8.92186      6.94736      9.10009         0.026751      0.031113     -0.000174
Pd      8.82427      6.98557     13.79397        -0.011914      0.024170      0.021794
Pd      8.10408      8.86832     11.36323        -0.029397      0.006583      0.047724
Pd     11.96661     10.54586      7.82560         0.004775     -0.048595     -0.039046
Pd      7.15920     12.04527      9.17918         0.011229     -0.024947      0.001518
Pd      8.01786      9.55740      8.79477         0.045418      0.065106     -0.040032
Pd     14.24629      6.52027      8.45563        -0.039161     -0.028827     -0.031456
Pd     12.56540      8.26566     11.47523        -0.048741     -0.024044     -0.018441
Pd      8.84420     11.34421     13.43831        -0.022135     -0.044676      0.014912
Pd     13.90989     11.94211      9.04452        -0.028781     -0.020205      0.014419
Pd     12.84973     10.57703     13.07633         0.008219      0.038451      0.034665
Pd     14.69692     10.29129     11.13946         0.033291      0.005369     -0.000043
Pd     12.04053     10.73478     10.57423         0.006591      0.049520      0.098839
Pd     11.46348     13.17522      9.90648         0.040795     -0.017877     -0.058787
Pd     13.58181     12.79422     11.69587        -0.045983      0.075907     -0.045040
Pd     11.02532     12.57189     12.44210         0.012918     -0.049449      0.035921
Pd     11.11310     11.38443     14.86993         0.014214     -0.003854      0.012323
Pd     10.48238      9.47099     12.59537        -0.048200     -0.027582     -0.030757
Pd      9.46093      9.33387     15.07516        -0.043990     -0.006385     -0.076406
Pd      8.56893     13.49507     11.98168         0.045822      0.005709      0.036267
