152
# total energy = -1004.25909013 eVH     10.35389      5.87395      7.64558        -0.200514      0.233087      0.639333
H     10.62451     15.10445      7.64558        -0.256407     -0.136331      0.690934
H     10.62451      5.87395     13.33282         0.471396      0.034318     -0.973020
H     10.35389     15.10445     13.33282         0.063867     -0.192996     -0.539012
H      7.64558     10.35389      5.87395         0.421719      0.068926      0.113771
H      7.64558     10.62451     15.10445         0.776644      0.580109     -0.030640
H     13.33282     10.62451      5.87395        -0.448992     -0.031519      0.284032
H     13.33282     10.35389     15.10445        -0.710030     -0.170626     -0.007154
H      5.87395      7.64558     10.35389         0.084117      1.889643      0.201162
H     15.10445      7.64558     10.62451        -0.096601      0.521066      0.158089
H      5.87395     13.33282     10.62451         0.211498     -0.733877      0.036098
H     15.10445     13.33282     10.35389         0.239937     -1.476901     -0.369355
H      5.87395     10.35389      7.64558         0.082834      0.069177      0.594278
H     15.10445     10.62451      7.64558        -0.192035      0.833844      1.336230
H      5.87395     10.62451     13.33282        -0.062083      0.447459     -1.316899
H     15.10445     10.35389     13.33282         0.123936     -0.152867     -0.744679
H     10.35389      7.64558      5.87395         0.245328      1.371323      0.163956
H     10.62451      7.64558     15.10445         0.537307      0.808564     -0.082328
H     10.62451     13.33282      5.87395        -0.582465     -0.826891      0.178653
H     10.35389     13.33282     15.10445        -0.151114     -0.534058     -0.303348
H      7.64558      5.87395     10.35389         1.116152     -0.272227     -0.117793
H      7.64558     15.10445     10.62451         0.740352     -0.208403     -0.029037
H     13.33282      5.87395     10.62451        -0.616076      0.115608      0.639074
H     13.33282     15.10445     10.35389        -0.387929     -0.032280     -0.138332
H     12.45634     12.45634     19.01126         0.274098      0.243073     -0.234634
H     19.01126     19.01126     19.01126        -0.267354     -0.272344     -0.213929
H     19.01126     12.45634     12.45634        -0.273621      0.252963      0.233243
H     12.45634     19.01126     12.45634         0.254574     -0.281223      0.228739
C     10.35284      5.61067      6.59456        -0.153975     -0.824397     -0.583412
C     10.62556     15.36773      6.59456         0.079134      0.364323     -0.271110
C     10.62556      5.61067     14.38384        -0.088932     -0.574203      0.669661
C     10.35284     15.36773     14.38384        -0.014916      0.241012      0.539653
C      6.59456     10.35284      5.61067        -0.678206      0.089457     -0.477861
C      6.59456     10.62556     15.36773        -0.987721      0.227981      0.732354
C     14.38384     10.62556      5.61067         0.828525      0.023308     -0.919539
C     14.38384     10.35284     15.36773         0.935461     -0.097119      0.460465
C      5.61067      6.59456     10.35284        -0.865598     -1.052504     -0.459859
C     15.36773      6.59456     10.62556         0.704483      0.036056     -0.247335
C      5.61067     14.38384     10.62556        -0.210587      0.854224     -0.009712
C     15.36773     14.38384     10.35284         0.295884      1.467125     -0.037646
C      5.61067     10.35284      6.59456        -0.285147      0.010274     -0.760008
C     15.36773     10.62556      6.59456         0.383225     -0.367300     -0.911992
C      5.61067     10.62556     14.38384        -0.349725     -0.005880      1.124170
C     15.36773     10.35284     14.38384         0.351795     -0.045936      0.858266
C     10.35284      6.59456      5.61067        -0.030972     -1.024909     -0.350369
C     10.62556      6.59456     15.36773         0.056510     -0.723689      0.557053
C     10.62556     14.38384      5.61067         0.108519      0.986943     -0.429630
C     10.35284     14.38384     15.36773        -0.023173      0.829085      0.418495
C      6.59456      5.61067     10.35284        -0.704709     -1.267417      0.139283
C      6.59456     15.36773     10.62556        -0.823458      0.147249      0.097694
C     14.38384      5.61067     10.62556        -0.068950     -0.518008     -0.372754
C     14.38384     15.36773     10.35284         0.098680      0.657327     -0.073251
C     10.40319      3.19606      7.29314         0.008436      0.665551     -0.815972
C     10.35913      4.25547      6.23373         0.013690     -0.537248      0.111046
C      0.08601      7.29314      7.29314        -0.022380     -1.017865     -0.259341
C      0.13007      6.23373      6.23373        -0.047568      0.399103      0.411847
C      0.08601      3.19606      3.19606         0.042428      1.147989      0.217282
C      0.13007      4.25547      4.25547         0.000199     -0.416232     -0.434379
C     10.40319      7.29314      3.19606        -0.009379     -0.587611      0.213790
C     10.35913      6.23373      4.25547        -0.019134      0.128334     -0.696537
C      7.29314     10.40319      3.19606        -0.414799      0.019212      0.254190
C      6.23373     10.35913      4.25547         0.208433      0.063261     -0.093377
C      7.29314      0.08601      7.29314        -1.176073     -0.079583     -0.365750
C      6.23373      0.13007      6.23373         0.645329     -0.192580      0.356088
C      3.19606      0.08601      3.19606         1.182273     -0.015939      0.293827
C      4.25547      0.13007      4.25547        -0.574547     -0.155309     -0.231398
C      3.19606     10.40319      7.29314         0.548517      0.030831     -0.257057
C      4.25547     10.35913      6.23373        -0.216337      0.073047      0.197336
C      3.19606      7.29314     10.40319         0.298470     -0.561818      0.045588
C      4.25547      6.23373     10.35913        -1.020548      0.011362      0.166722
C      7.29314      7.29314      0.08601        -0.488408     -0.436838     -0.023424
C      6.23373      6.23373      0.13007         0.485641      0.304599      0.053370
C      3.19606      3.19606      0.08601         0.656111      0.451742     -0.023734
C      4.25547      4.25547      0.13007        -0.134148     -0.783591     -0.117171
C      7.29314      3.19606     10.40319        -0.400266      0.458740      0.051823
C      6.23373      4.25547     10.35913         0.609944     -0.716168      0.195195
O     10.43466      3.58206      8.50569         0.060832      0.202962      0.688685
O     10.54374     17.39634      8.50569         0.049999     -0.032553      0.303833
O     10.54374      3.58206     12.47271         0.004972     -0.041597     -0.228449
O     10.43466     17.39634     12.47271        -0.035032     -0.105660     -0.388774
O      8.50569     10.43466      3.58206         0.563205     -0.045275      0.142273
O      8.50569     10.54374     17.39634         0.865186     -0.084436     -0.165857
O     12.47271     10.54374      3.58206        -0.885458      0.142140      0.139304
O     12.47271     10.43466     17.39634        -0.618504      0.035860     -0.177616
O      3.58206      8.50569     10.43466         0.175334      0.662272     -0.030403
O     17.39634      8.50569     10.54374        -0.137225      0.626896      0.021656
O      3.58206     12.47271     10.54374         0.101258     -0.547235      0.053071
O     17.39634     12.47271     10.43466        -0.173804     -0.562211     -0.056336
O      3.58206     10.43466      8.50569         0.087718     -0.039611      0.389793
O     17.39634     10.54374      8.50569         0.052067      0.103367      0.326405
O      3.58206     10.54374     12.47271        -0.024308      0.031853     -0.237973
O     17.39634     10.43466     12.47271        -0.117052     -0.028483     -0.430726
O     10.43466      8.50569      3.58206        -0.041198      0.636009      0.182879
O     10.54374      8.50569     17.39634        -0.091873      0.809363     -0.167016
O     10.54374     12.47271      3.58206         0.117626     -0.938512      0.176212
O     10.43466     12.47271     17.39634         0.021261     -0.508968     -0.070661
O      8.50569      3.58206     10.43466         0.578189      0.153134     -0.052277
O      8.50569     17.39634     10.54374         0.600955     -0.167696      0.014248
O     12.47271      3.58206     10.54374        -0.751128      0.128598      0.011662
O     12.47271     17.39634     10.43466        -0.505474     -0.126444     -0.031601
O     11.90042     11.90042     19.56718        -0.326437     -0.263364      0.244051
O     19.56718     19.56718     19.56718         0.298822      0.324701      0.206066
O     19.56718     11.90042     11.90042         0.345838     -0.278884     -0.252906
O     11.90042     19.56718     11.90042        -0.280734      0.351617     -0.227060
O      9.45224      1.03696      9.45224        -0.029223      0.105637     -0.131167
O      1.03696      9.45224      9.45224         0.061935     -0.022389     -0.117672
O      1.03696      1.03696      1.03696         0.063734      0.099428      0.096792
O      9.45224      9.45224      1.03696        -0.036334     -0.026677      0.089494
Zr     10.48920      2.52580     10.48920        -0.094799     -0.257113      0.181687
Zr     10.48920     18.45260     10.48920         0.021305      0.056768      0.093937
Zr     10.48920     10.48920      2.52580        -0.319429     -0.251323     -0.389766
Zr     10.48920     10.48920     18.45260         0.184197     -0.014650      0.372065
Zr      2.52580     10.48920     10.48920        -0.136103     -0.049454     -0.069047
Zr     18.45260     10.48920     10.48920         0.104367     -0.054777      0.142648
Pd     12.69242      8.26238      9.72509         0.018880      0.041066      0.047556
Pd      6.71926      9.61565     10.48878        -0.045471     -0.009113     -0.042977
Pd      6.91854     11.77767     11.92468         0.019826      0.034806      0.016601
Pd     12.23262     13.46728      7.27480         0.043610      0.011860      0.003995
Pd     12.06497      7.89352      7.11806         0.012847      0.020667     -0.037916
Pd      8.51555      7.33747      6.94744         0.022917      0.001276     -0.028998
Pd     11.50151     11.44539      5.67606         0.006876      0.004189     -0.008892
Pd     14.46800      8.85542      7.80496         0.013082      0.033150      0.002143
Pd      9.84572     11.78501      7.87160         0.039383      0.016231      0.004497
Pd      7.07841      7.18409     11.96952        -0.027730     -0.018804     -0.022073
Pd      6.45971      7.66223      8.51278        -0.005127     -0.014484      0.000663
Pd      7.34515      9.27507     13.44698         0.007560     -0.004249      0.019504
Pd     11.39392      6.04064      9.22292         0.015487     -0.002435     -0.009599
Pd      9.89642      9.57045      6.34338         0.017923     -0.035665      0.002454
Pd      9.14023     13.95260      9.30944        -0.029631      0.022050     -0.013016
Pd     10.92869      7.20841     11.52801         0.023095      0.002938     -0.000636
Pd     10.32493      9.07111      8.99451        -0.037402     -0.017546      0.000154
Pd      9.28384     11.50812     10.46101         0.028849      0.004039      0.021493
Pd      8.91277      7.05418      9.62780        -0.019703      0.038463     -0.010948
Pd      9.08034      7.28488     13.62105         0.035819      0.008135      0.066084
Pd      9.08365      9.08518     11.42359         0.036634     -0.007660      0.033075
Pd     12.30653     10.59701      8.09346         0.003255      0.001350     -0.020733
Pd      7.03951     12.07905      9.20854         0.056142     -0.037531     -0.022955
Pd      8.02483      9.80701      8.22332         0.017701      0.003041      0.006679
Pd     14.02649      6.32271      8.48819        -0.016531      0.009173      0.003258
Pd     13.34564      8.34145     12.24206        -0.037606      0.011100      0.003750
Pd      9.18189     11.31501     13.19459        -0.008043     -0.012803      0.040891
Pd     14.06741     12.41850      8.81811        -0.019132      0.002207     -0.023256
Pd     13.15557     10.91931     12.99768         0.060815      0.014125      0.039238
Pd     14.28104     10.28886     10.42557         0.058929      0.004081      0.003505
Pd     11.65901     10.46388     10.86320        -0.027109      0.004663     -0.043501
Pd     11.55088     12.97447      9.75479        -0.020627     -0.021395     -0.014599
Pd     13.69886     12.90875     11.49190        -0.024894      0.009901      0.018988
Pd     11.23306     12.71766     12.35239        -0.000293      0.002116      0.007219
Pd     11.30228     11.50054     14.81527         0.007262      0.011089      0.004191
Pd     11.07106      9.28744     13.24339        -0.072310      0.007523     -0.031478
Pd      9.45697      9.56951     15.30014        -0.013289      0.000977     -0.020007
Pd      8.85443     13.74744     11.97789        -0.027246      0.005563      0.014181
