7
# total energy = -58.27502803 eVC      0.00000      2.88863      7.91739        -0.000000     -0.248379      0.063152
C      1.24499      0.71879      7.91739         0.215102      0.124189      0.063152
C      2.50163     -1.44432      7.91739        -0.215102      0.124189      0.063152
C      0.00000      1.43759      7.91739        -0.000000      0.248379      0.063152
C      2.50163      1.44432      7.91739        -0.215102     -0.124189      0.063152
C      1.24499     -0.71879      7.91739         0.215102     -0.124189      0.063152
Ir      0.00000     -0.00000      9.67235        -0.000000     -0.000000     -0.378915
