152
# total energy = -1006.00106906 eVH     10.35389      5.87395      7.64558         0.258909      0.035419      0.637334
H     10.62451     15.10445      7.64558        -0.107486     -0.141643      0.514691
H     10.62451      5.87395     13.33282         0.484857      0.121410     -0.583895
H     10.35389     15.10445     13.33282         0.076993     -0.183630     -0.554451
H      7.64558     10.35389      5.87395         0.372073      0.083868      0.164797
H      7.64558     10.62451     15.10445         0.695394      0.471917     -0.040267
H     13.33282     10.62451      5.87395        -0.532323      0.420736      0.075393
H     13.33282     10.35389     15.10445        -0.803730     -0.094388      0.008955
H      5.87395      7.64558     10.35389         0.241064      0.697246     -0.390907
H     15.10445      7.64558     10.62451        -0.095185      0.480607      0.283650
H      5.87395     13.33282     10.62451         0.159297     -0.696530     -0.156851
H     15.10445     13.33282     10.35389        -0.010077     -1.026165     -0.327094
H      5.87395     10.35389      7.64558         0.254506      0.294891      0.736882
H     15.10445     10.62451      7.64558        -0.108324      0.404615      0.760448
H      5.87395     10.62451     13.33282         0.135327      0.328370     -0.691637
H     15.10445     10.35389     13.33282        -0.053647     -0.072236     -0.689270
H     10.35389      7.64558      5.87395         0.391365      1.052376     -0.008611
H     10.62451      7.64558     15.10445         0.535988      0.536859     -0.120328
H     10.62451     13.33282      5.87395        -0.398214     -0.845008      0.187071
H     10.35389     13.33282     15.10445        -0.044885     -0.433550     -0.216770
H      7.64558      5.87395     10.35389         0.849071      0.095633     -0.290162
H      7.64558     15.10445     10.62451         0.836729     -0.196917      0.011012
H     13.33282      5.87395     10.62451        -0.804392      0.196231      0.587121
H     13.33282     15.10445     10.35389        -0.444151     -0.111146     -0.131135
H     12.45634     12.45634     19.01126         0.235335      0.270260     -0.239903
H     19.01126     19.01126     19.01126        -0.262490     -0.240619     -0.261110
H     19.01126     12.45634     12.45634        -0.266912      0.268781      0.218556
H     12.45634     19.01126     12.45634         0.231994     -0.255534      0.278672
C     10.35284      5.61067      6.59456        -0.433916     -0.733224      0.198261
C     10.62556     15.36773      6.59456         0.061991      0.367915     -0.297116
C     10.62556      5.61067     14.38384        -0.333180     -0.361990     -0.304687
C     10.35284     15.36773     14.38384        -0.009084      0.333557      0.542797
C      6.59456     10.35284      5.61067        -0.216514     -0.002748     -0.391378
C      6.59456     10.62556     15.36773        -0.263014     -0.219957      0.808540
C     14.38384     10.62556      5.61067        -0.270128     -0.400699     -0.517326
C     14.38384     10.35284     15.36773         0.977251     -0.055202      0.255143
C      5.61067      6.59456     10.35284        -0.539963      0.002294      0.169120
C     15.36773      6.59456     10.62556         0.525432      0.024876     -0.251150
C      5.61067     14.38384     10.62556        -0.339449      0.973050      0.076870
C     15.36773     14.38384     10.35284         0.317618      1.035450      0.053644
C      5.61067     10.35284      6.59456        -0.179063     -0.314383     -0.621087
C     15.36773     10.62556      6.59456         0.447279     -0.288655      0.118237
C      5.61067     10.62556     14.38384        -0.725735     -0.353526     -0.061252
C     15.36773     10.35284     14.38384         0.385990     -0.061513      1.010871
C     10.35284      6.59456      5.61067        -0.207164     -0.208018     -0.656024
C     10.62556      6.59456     15.36773        -0.267574      0.124152      0.447702
C     10.62556     14.38384      5.61067         0.205111      1.065236     -0.347666
C     10.35284     14.38384     15.36773         0.025976      0.537985      0.436141
C      6.59456      5.61067     10.35284        -0.175257     -0.643753      0.234818
C      6.59456     15.36773     10.62556        -1.022640      0.299816      0.079679
C     14.38384      5.61067     10.62556         0.493272     -0.545111     -0.365008
C     14.38384     15.36773     10.35284         0.214775      0.455460     -0.102420
C     10.40319      3.19606      7.29314         0.007900      0.693281     -0.486524
C     10.35913      4.25547      6.23373         0.085248     -0.728602     -0.017175
C      0.08601      7.29314      7.29314        -0.044020     -0.410020     -0.309492
C      0.13007      6.23373      6.23373        -0.022752      0.082795      0.568342
C      0.08601      3.19606      3.19606        -0.017454      1.250613      0.280487
C      0.13007      4.25547      4.25547         0.048952     -0.776416     -0.152559
C     10.40319      7.29314      3.19606         0.009637     -0.343088      0.353626
C     10.35913      6.23373      4.25547         0.027227      0.012920     -0.893961
C      7.29314     10.40319      3.19606        -0.356899      0.020046      0.565585
C      6.23373     10.35913      4.25547         0.207988      0.052624     -0.121943
C      7.29314      0.08601      7.29314        -0.524421     -0.064270     -0.372477
C      6.23373      0.13007      6.23373         0.680611     -0.047953      0.490041
C      3.19606      0.08601      3.19606         0.674804     -0.036966      0.565985
C      4.25547      0.13007      4.25547        -0.574136     -0.081081     -0.553690
C      3.19606     10.40319      7.29314         0.483276     -0.019905     -0.778617
C      4.25547     10.35913      6.23373        -0.492945      0.031617      0.201982
C      3.19606      7.29314     10.40319         0.284963     -1.256199      0.038862
C      4.25547      6.23373     10.35913        -0.706581      0.101099      0.153173
C      7.29314      7.29314      0.08601        -0.407164     -0.371223     -0.028039
C      6.23373      6.23373      0.13007         0.468533      0.213780     -0.020769
C      3.19606      3.19606      0.08601         0.500334      0.372468     -0.039329
C      4.25547      4.25547      0.13007        -0.150545     -0.650658     -0.034551
C      7.29314      3.19606     10.40319        -0.322090      0.422589      0.075246
C      6.23373      4.25547     10.35913         0.258501     -0.694066      0.137216
O     10.43466      3.58206      8.50569        -0.014963      0.102227      0.507326
O     10.54374     17.39634      8.50569         0.036527     -0.174721      0.482765
O     10.54374      3.58206     12.47271         0.057282     -0.083354     -0.187890
O     10.43466     17.39634     12.47271        -0.038363     -0.182866     -0.564794
O      8.50569     10.43466      3.58206         0.334268      0.003394      0.035169
O      8.50569     10.54374     17.39634         0.632248      0.033482     -0.145221
O     12.47271     10.54374      3.58206        -0.678990      0.082822      0.091995
O     12.47271     10.43466     17.39634        -0.439434      0.026897     -0.111483
O      3.58206      8.50569     10.43466         0.181464      1.032481     -0.047718
O     17.39634      8.50569     10.54374        -0.162291      0.539207      0.076412
O      3.58206     12.47271     10.54374         0.083666     -0.362868      0.048937
O     17.39634     12.47271     10.43466        -0.157580     -0.545861     -0.022745
O      3.58206     10.43466      8.50569         0.075905     -0.062132      0.593287
O     17.39634     10.54374      8.50569        -0.110773      0.065958      0.521815
O      3.58206     10.54374     12.47271         0.055445      0.051668     -0.533115
O     17.39634     10.43466     12.47271        -0.217992     -0.039867     -0.592983
O     10.43466      8.50569      3.58206        -0.039213      0.471198      0.134463
O     10.54374      8.50569     17.39634         0.048366      0.529883     -0.160800
O     10.54374     12.47271      3.58206        -0.003065     -1.005629      0.206846
O     10.43466     12.47271     17.39634         0.041953     -0.734022     -0.174586
O      8.50569      3.58206     10.43466         0.506558      0.146749     -0.053969
O      8.50569     17.39634     10.54374         0.486389     -0.197897      0.013946
O     12.47271      3.58206     10.54374        -0.641120      0.235314      0.008637
O     12.47271     17.39634     10.43466        -0.213583      0.068809     -0.056500
O     11.90042     11.90042     19.56718        -0.239780     -0.289025      0.247645
O     19.56718     19.56718     19.56718         0.310188      0.295172      0.300295
O     19.56718     11.90042     11.90042         0.290214     -0.264908     -0.233212
O     11.90042     19.56718     11.90042        -0.242474      0.290757     -0.335884
O      9.45224      1.03696      9.45224        -0.020482      0.086519     -0.072723
O      1.03696      9.45224      9.45224         0.090868     -0.091424     -0.138634
O      1.03696      1.03696      1.03696         0.089017      0.190161      0.047622
O      9.45224      9.45224      1.03696        -0.111557     -0.100649      0.031213
Zr     10.48920      2.52580     10.48920        -0.131553     -0.290962     -0.035907
Zr     10.48920     18.45260     10.48920        -0.073318      0.214564      0.093531
Zr     10.48920     10.48920      2.52580         0.058930     -0.409796     -0.250766
Zr     10.48920     10.48920     18.45260        -0.271363     -0.090271      0.324262
Zr      2.52580     10.48920     10.48920        -0.376169      0.239443      0.302098
Zr     18.45260     10.48920     10.48920         0.240359     -0.000705     -0.223005
Pd     13.60551      8.99042      9.20081        -0.002911     -0.003000     -0.002748
Pd      5.62864      9.86635     10.12871         0.000511      0.001168     -0.007355
Pd      6.77118     11.84777     11.70909        -0.001005     -0.000790      0.000490
Pd     12.05994     12.99564      7.35938        -0.005738     -0.001969      0.000654
Pd     11.87487      7.73907      7.45420        -0.000846     -0.006510     -0.004663
Pd      8.31605      6.83081      6.53112         0.002529     -0.010056     -0.006880
Pd     10.57142     11.16827      5.65459        -0.017333     -0.000476      0.002271
Pd     14.39906      8.54748      6.72897        -0.002561     -0.000775     -0.003253
Pd      9.66474     11.73017      8.14769         0.002785     -0.004912      0.003241
Pd      6.72878      6.78825     12.33968        -0.002333     -0.002860      0.002013
Pd      6.61239      8.25927      7.89352         0.015859      0.020261     -0.022488
Pd      6.52427      8.49120     14.38867        -0.000011     -0.001518      0.002558
Pd     11.48371      6.51119      9.94956        -0.002712     -0.002432      0.000594
Pd      9.46223      9.19897      7.17003        -0.004066     -0.002602      0.002030
Pd      8.97874     13.99163      9.36227        -0.000655     -0.001159      0.007061
Pd      9.43520      7.36697     11.69946        -0.004625      0.000594     -0.004019
Pd     10.63077      8.96052      9.67462         0.001395     -0.005208     -0.005392
Pd      9.34067     11.56823     10.73537        -0.000556      0.004032      0.007178
Pd      8.86384      7.07029      9.11069        -0.003794      0.001873     -0.004556
Pd      8.55421      6.58003     14.23393         0.000082     -0.000054     -0.000853
Pd      7.61894      9.32045     12.03118        -0.003614     -0.001208      0.005041
Pd     11.94173     10.37505      7.71073        -0.002220     -0.002812     -0.011817
Pd      7.12870     12.01521      9.06712         0.000553     -0.002123     -0.000849
Pd      8.14855      9.62450      9.47038         0.004258     -0.004271      0.005669
Pd     14.01082      6.50098      8.52458        -0.001789     -0.001994     -0.000203
Pd     12.62867      8.40754     11.56623        -0.003728      0.000074     -0.002361
Pd      8.76061     11.57146     13.41269        -0.002092     -0.000719      0.004887
Pd     13.87071     11.91191      8.96895        -0.003674     -0.003079     -0.002308
Pd     12.93414     10.70183     13.07548        -0.003178     -0.004032     -0.002677
Pd     14.76406     10.43049     11.11983        -0.004830     -0.005115     -0.001096
Pd     12.05108     10.89729     10.53837        -0.004326     -0.000442     -0.002462
Pd     11.44719     13.34942      9.92698         0.001649      0.002957      0.003090
Pd     13.59725     12.91350     11.62684         0.001069     -0.005575     -0.000481
Pd     11.11400     12.62770     12.54434        -0.000943     -0.001280      0.001071
Pd     10.94321     11.06628     14.81771         0.001390      0.000532      0.000402
Pd     10.49933      9.72162     12.37870        -0.003292      0.000499     -0.002269
Pd      9.08401      9.14173     14.43451         0.000560     -0.001532      0.004362
Pd      8.79905     13.86410     12.06361        -0.003461      0.000511      0.009471
