13
# total energy = -105.61421317 eVC      1.26310      6.81161      0.00000        -0.025642     -0.026654      0.000000
C      3.78418      6.81161      0.00000         0.025642     -0.026654      0.000000
C      3.78418      1.42090      0.00000         0.025642      0.026654      0.000000
C      1.26310      1.42090      0.00000        -0.025642      0.026654     -0.000000
C      0.00000      7.52455      0.00000        -0.000000      0.024457      0.000000
C      0.00000      0.70796      0.00000        -0.000000     -0.024457      0.000000
C      2.52364      7.51969      0.00000        -0.000000      0.036949      0.000000
C      2.52364      0.71282     -0.00000        -0.000000     -0.036949      0.000000
O      1.19822      2.72259     -0.00000         0.076323     -0.061138      0.000000
O      3.84906      2.72259      0.00000        -0.076323     -0.061138      0.000000
O      3.84906      5.50992      0.00000        -0.076323      0.061138      0.000000
O      1.19822      5.50992     -0.00000         0.076323      0.061138     -0.000000
Ir      2.52364      4.11625      0.00000        -0.000000      0.000000      0.000000
