152
# total energy = -1024.32247043 eVH     10.35389      5.87395      7.64558         0.471186      0.039479      0.744303
H     10.62451     15.10445      7.64558         0.018444     -0.189480      0.592360
H     10.62451      5.87395     13.33282         0.102306      0.159558     -0.575581
H     10.35389     15.10445     13.33282        -0.435145     -0.047931     -0.775603
H      7.64558     10.35389      5.87395         0.341720      0.012795      0.169304
H      7.64558     10.62451     15.10445         0.893021     -0.333963     -0.010360
H     13.33282     10.62451      5.87395        -0.759458     -0.057071      0.157040
H     13.33282     10.35389     15.10445        -0.875631     -0.400027      0.201295
H      5.87395      7.64558     10.35389         0.203704      0.645988     -0.145668
H     15.10445      7.64558     10.62451        -0.139417      0.395518     -0.039817
H      5.87395     13.33282     10.62451         0.161122     -0.526095     -0.115175
H     15.10445     13.33282     10.35389        -0.083084     -1.179855      0.020675
H      5.87395     10.35389      7.64558         0.133705      0.145840      0.520730
H     15.10445     10.62451      7.64558         0.008934      0.107551      1.028675
H      5.87395     10.62451     13.33282         0.101697     -0.052847     -0.420173
H     15.10445     10.35389     13.33282        -0.126534     -0.168562     -0.538303
H     10.35389      7.64558      5.87395         0.041795      0.975307      0.238097
H     10.62451      7.64558     15.10445         0.008566      0.276397     -0.173984
H     10.62451     13.33282      5.87395        -0.091834     -0.422344      0.321271
H     10.35389     13.33282     15.10445        -0.458344     -0.634204     -0.016801
H      7.64558      5.87395     10.35389         0.483980      0.114557      0.003851
H      7.64558     15.10445     10.62451         0.895092     -0.250846     -0.069751
H     13.33282      5.87395     10.62451        -0.583636      0.130626     -0.075440
H     13.33282     15.10445     10.35389        -0.621005     -0.054834      0.229755
H     12.45634     12.45634     19.01126         0.237194      0.276637     -0.235897
H     19.01126     19.01126     19.01126        -0.251506     -0.246514     -0.242818
H     19.01126     12.45634     12.45634        -0.263457      0.267240      0.220919
H     12.45634     19.01126     12.45634         0.233399     -0.264848      0.241051
C     10.35284      5.61067      6.59456        -0.194824     -0.636173      0.070221
C     10.62556     15.36773      6.59456        -0.026420      0.378616     -0.778512
C     10.62556      5.61067     14.38384        -0.008903     -0.063187      0.695957
C     10.35284     15.36773     14.38384         0.150070      0.727462      0.191287
C      6.59456     10.35284      5.61067        -0.360568     -0.021233     -0.283172
C      6.59456     10.62556     15.36773        -1.023940      0.339114      0.350738
C     14.38384     10.62556      5.61067         0.407957      0.336310     -0.622725
C     14.38384     10.35284     15.36773         0.986495     -0.005014      0.320969
C      5.61067      6.59456     10.35284        -0.371114     -0.418600      0.322523
C     15.36773      6.59456     10.62556         0.193536     -0.515238      0.027835
C      5.61067     14.38384     10.62556        -0.193525      0.590759      0.013820
C     15.36773     14.38384     10.35284         0.350582      0.045706     -0.158630
C      5.61067     10.35284      6.59456        -0.316590     -0.071952     -0.966186
C     15.36773     10.62556      6.59456         0.806556     -0.326431     -0.971811
C      5.61067     10.62556     14.38384        -0.477993      0.015233      0.277713
C     15.36773     10.35284     14.38384         0.664882     -0.098883      1.092977
C     10.35284      6.59456      5.61067        -0.248346     -0.596461     -0.868838
C     10.62556      6.59456     15.36773         0.051817     -0.286666      0.065972
C     10.62556     14.38384      5.61067         0.095785      1.194871     -0.430799
C     10.35284     14.38384     15.36773         0.225777      0.128002      0.713188
C      6.59456      5.61067     10.35284        -0.304314     -0.735337      0.090814
C      6.59456     15.36773     10.62556        -1.200729      0.274268      0.103624
C     14.38384      5.61067     10.62556         0.951500     -0.286652      0.028407
C     14.38384     15.36773     10.35284        -0.520749      0.769755     -0.367912
C     10.40319      3.19606      7.29314        -0.017549      0.837258     -0.393334
C     10.35913      4.25547      6.23373         0.051530     -0.470518      0.566274
C      0.08601      7.29314      7.29314        -0.018240     -0.476277     -0.346814
C      0.13007      6.23373      6.23373        -0.019837      0.018117      0.097319
C      0.08601      3.19606      3.19606         0.001816      1.238225      0.191331
C      0.13007      4.25547      4.25547        -0.050180     -0.216897     -0.212998
C     10.40319      7.29314      3.19606        -0.004478     -1.029944      0.385747
C     10.35913      6.23373      4.25547         0.029997      0.467998     -0.648960
C      7.29314     10.40319      3.19606        -0.352528      0.040624      0.765573
C      6.23373     10.35913      4.25547         0.198210      0.087303     -0.105427
C      7.29314      0.08601      7.29314        -0.594795     -0.022176     -0.266501
C      6.23373      0.13007      6.23373         0.385580     -0.070450      0.465568
C      3.19606      0.08601      3.19606         0.932889     -0.009822      0.315483
C      4.25547      0.13007      4.25547        -0.109316     -0.040992     -0.510161
C      3.19606     10.40319      7.29314         0.454501     -0.005744     -0.827266
C      4.25547     10.35913      6.23373        -0.264171      0.103672      0.252726
C      3.19606      7.29314     10.40319         0.494499     -1.326100     -0.043474
C      4.25547      6.23373     10.35913        -0.424114      0.803223      0.076012
C      7.29314      7.29314      0.08601        -0.400721     -0.223421     -0.006139
C      6.23373      6.23373      0.13007         0.159180      0.145363     -0.009744
C      3.19606      3.19606      0.08601         0.248012      0.261729     -0.018881
C      4.25547      4.25547      0.13007        -0.109542     -0.052450      0.015433
C      7.29314      3.19606     10.40319        -0.367733      0.665966      0.009247
C      6.23373      4.25547     10.35913         1.113890      0.007677      0.025779
O     10.43466      3.58206      8.50569        -0.029162      0.054052      0.444534
O     10.54374     17.39634      8.50569        -0.005119     -0.090929      0.437780
O     10.54374      3.58206     12.47271         0.043655     -0.097069     -0.140703
O     10.43466     17.39634     12.47271        -0.057750     -0.050955     -0.475954
O      8.50569     10.43466      3.58206         0.309300     -0.032470     -0.038451
O      8.50569     10.54374     17.39634         0.683041      0.026587     -0.175160
O     12.47271     10.54374      3.58206        -0.748119     -0.038771      0.144294
O     12.47271     10.43466     17.39634        -0.400289     -0.026312     -0.019467
O      3.58206      8.50569     10.43466         0.145329      1.080339     -0.011114
O     17.39634      8.50569     10.54374        -0.090576      0.415249      0.062239
O      3.58206     12.47271     10.54374         0.068635     -0.407870      0.039353
O     17.39634     12.47271     10.43466        -0.162769     -0.690735     -0.000371
O      3.58206     10.43466      8.50569         0.038043     -0.072000      0.701714
O     17.39634     10.54374      8.50569        -0.069546      0.044166      0.343032
O      3.58206     10.54374     12.47271        -0.009027      0.029527     -0.286160
O     17.39634     10.43466     12.47271        -0.246384      0.013165     -0.724995
O     10.43466      8.50569      3.58206         0.112913      0.827915      0.196317
O     10.54374      8.50569     17.39634         0.036610      0.667159     -0.160154
O     10.54374     12.47271      3.58206        -0.008191     -1.015801      0.199938
O     10.43466     12.47271     17.39634        -0.028394     -0.897259     -0.200623
O      8.50569      3.58206     10.43466         0.534541      0.109786     -0.017381
O      8.50569     17.39634     10.54374         0.521459     -0.207161     -0.012146
O     12.47271      3.58206     10.54374        -0.465429      0.156535      0.056831
O     12.47271     17.39634     10.43466        -0.395178      0.032982     -0.008046
O     11.90042     11.90042     19.56718        -0.271454     -0.325509      0.258187
O     19.56718     19.56718     19.56718         0.281775      0.286507      0.286425
O     19.56718     11.90042     11.90042         0.294110     -0.302940     -0.201291
O     11.90042     19.56718     11.90042        -0.269732      0.281399     -0.247265
O      9.45224      1.03696      9.45224        -0.083054      0.050820     -0.056343
O      1.03696      9.45224      9.45224         0.035395     -0.165899     -0.116071
O      1.03696      1.03696      1.03696         0.010396      0.117154      0.208602
O      9.45224      9.45224      1.03696        -0.064069     -0.086926      0.127086
Zr     10.48920      2.52580     10.48920        -0.035302     -0.119536     -0.169090
Zr     10.48920     18.45260     10.48920         0.019988      0.228091     -0.029454
Zr     10.48920     10.48920      2.52580        -0.113910     -0.179484     -0.535591
Zr     10.48920     10.48920     18.45260        -0.040542      0.026254      0.468188
Zr      2.52580     10.48920     10.48920        -0.365480      0.299327      0.134402
Zr     18.45260     10.48920     10.48920         0.204239      0.044922     -0.232259
Pd      8.52301      9.87356     13.23102        -0.031370     -0.021024      0.039517
Pd     10.53038      9.49989     10.24138        -0.060745     -0.027677      0.018822
Pd     13.28320      8.72498     12.46074        -0.001622      0.002802      0.024103
Pd     10.42946     10.67159     15.07597        -0.047741      0.027372      0.014260
Pd     12.93989     11.35247     13.49175        -0.035285      0.003373     -0.013146
Pd     14.90932     10.69036     11.31879        -0.010323     -0.004755     -0.003221
Pd      6.84520      7.77322     12.43591        -0.027872     -0.043465      0.011048
Pd      9.21409      7.24866      9.55324         0.021032     -0.045189     -0.043089
Pd      9.52106      7.56542     12.27453         0.052183     -0.026530     -0.013553
Pd     11.74232      7.16055     10.89935        -0.010601      0.001309      0.019760
Pd     11.61609      7.84602      8.32262        -0.017064     -0.007030     -0.036905
Pd      7.15696     11.74152     11.59834         0.001958     -0.030614     -0.038346
Pd      9.22384     14.31844      9.33375         0.010012      0.072229      0.007019
Pd      8.13379     12.38626     14.16480         0.020937     -0.001416     -0.005393
Pd     14.19535     14.22659      8.33644        -0.007382     -0.039775      0.023260
Pd     11.69939     13.34758      8.82030        -0.006954     -0.001387      0.005978
Pd     14.09642     11.65008      8.97389         0.016839     -0.008832     -0.036098
Pd      8.73067     13.95193     12.11475        -0.000426      0.011196     -0.027747
Pd     12.19605     13.93090     13.96871         0.028563      0.006317     -0.025474
Pd     11.37105     14.10810     11.34987         0.040153     -0.022684      0.001225
Pd     14.00732     13.38128     12.08500         0.007479      0.004133      0.015594
Pd     12.28894     11.57001     10.89119         0.036609      0.010482      0.034557
Pd     12.94229     12.63148      6.60364        -0.007515     -0.015462      0.001432
Pd     13.94268      8.84958      7.58038        -0.020230      0.019255     -0.006025
Pd      6.96980      8.48308      8.46920         0.000619     -0.020329     -0.006031
Pd      5.55390     10.04623     10.17197         0.018334     -0.000905     -0.047113
Pd      9.38718      9.48003      7.52477        -0.034198     -0.013257      0.024986
Pd      8.49612      6.99425      6.95784         0.003579      0.004829     -0.028530
Pd      9.65467     11.94705     10.56835        -0.012067     -0.027257      0.018181
Pd     11.77309     10.64462      8.07994         0.070551     -0.008437     -0.023862
Pd     11.74994      8.96072      5.89801        -0.001263      0.006858     -0.003315
Pd     10.52335     11.33944      5.77517         0.020103      0.032203     -0.009314
Ir     11.00062      9.70069     12.72863        -0.092255     -0.010468     -0.030913
Ir     13.16986      9.29646      9.95863         0.047304      0.006006      0.055681
Ir     10.49267     12.15103     12.93385         0.052992      0.031327      0.025071
Ir      7.71965     11.02492      9.09264        -0.060552     -0.046464      0.079416
Ir      9.54798     12.09291      8.01220         0.015274     -0.008505     -0.111476
Ir      8.04703      9.27119     10.78609         0.020337      0.018755     -0.109395
