15
# total energy = -105.19664454 eVC      1.40394      0.00013     10.00000        -0.009985      0.001641      0.000000
C      5.43066      3.95115     10.00000         0.009985     -0.001641      0.000000
C      6.13207     -2.72727     10.00000         0.006048     -0.008162      0.000000
C      0.70252      6.67856     10.00000        -0.006048      0.008162      0.000000
C      6.13352      2.73625     10.00000        -0.002614     -0.004852     -0.000000
C      0.70108      1.21504     10.00000         0.002614      0.004852      0.000000
O      1.38018      2.39187     10.00000        -0.019711     -0.030073     -0.000000
O      5.45442      1.55942     10.00000         0.019711      0.030073      0.000000
O      4.07173      3.94985     10.00000         0.049163      0.001357      0.000000
O      2.76286      0.00143     10.00000        -0.049163     -0.001357     -0.000000
O      1.38160      5.50149     10.00000        -0.022316      0.042712      0.000000
O      5.45299     -1.55020     10.00000         0.022316     -0.042712     -0.000000
Pd      3.41730      1.97564     10.00000        -0.000000      0.000000      0.000000
Pd      3.41730     -1.97139     10.00000        -0.000000      0.000000      0.000000
Pd      0.00000      3.94703     10.00000        -0.000000      0.000000      0.000000
