15
# total energy = -121.83579644 eVC      1.38773      0.00541     10.00000         0.005000     -0.041471      0.000000
C      5.73576      4.18203     10.00000        -0.005000      0.041471     -0.000000
C      6.42631     -2.88313     10.00000        -0.045319     -0.015391      0.000000
C      0.69718      7.07056     10.00000         0.045319      0.015391      0.000000
C      6.43503      2.98555     10.00000        -0.002962     -0.005765      0.000000
C      0.68846      1.20188     10.00000         0.002962      0.005765      0.000000
O      1.37285      2.39967     10.00000         0.005417      0.015051      0.000000
O      5.75064      1.78776     10.00000        -0.005417     -0.015051      0.000000
O      4.35537      4.16901     10.00000         0.017413     -0.006739     -0.000000
O      2.76812      0.01842     10.00000        -0.017413      0.006739      0.000000
O      1.38358      5.87295     10.00000        -0.005676      0.009714      0.000000
O      5.73992     -1.68552     10.00000         0.005676     -0.009714     -0.000000
Zr      3.56175      2.09372     10.00000         0.000000      0.000000      0.000000
Zr      3.56175     -2.04115     10.00000         0.000000      0.000000      0.000000
Zr      0.00000      4.13487     10.00000         0.000000      0.000000      0.000000
