31
# total energy = -195.17495850 eVH      2.20793      8.01648      7.50000         0.107870     -0.135437      0.000000
H      8.92147      3.11292      7.50000        -0.107870      0.135437     -0.000000
H      3.11292      2.20793      7.50000         0.135437      0.107870     -0.000000
H      8.01648      8.92147      7.50000        -0.135437     -0.107870     -0.000000
H      1.48546      6.35874      7.50000        -0.007807     -0.003296     -0.000000
H      9.64394      4.77066      7.50000         0.007807      0.003296     -0.000000
H      4.77066      1.48546      7.50000         0.003296     -0.007807     -0.000000
H      6.35874      9.64394      7.50000        -0.003296      0.007807     -0.000000
H      4.17990      9.01878      7.50000         0.016365     -0.082530     -0.000000
H      6.94950      2.11062      7.50000        -0.016365      0.082530     -0.000000
H      2.11062      4.17990      7.50000         0.082530      0.016365     -0.000000
H      9.01878      6.94950      7.50000        -0.082530     -0.016365     -0.000000
C      8.50982      0.92331      7.50000         0.047005      0.346986     -0.000000
C      2.61958     10.20609      7.50000        -0.047005     -0.346986      0.000000
C     10.20609      8.50982      7.50000        -0.346986      0.047005     -0.000000
C      0.92331      2.61958      7.50000         0.346986     -0.047005      0.000000
C      9.19741     10.76459      7.50000         0.077539     -0.181986      0.000000
C      1.93199      0.36481      7.50000        -0.077539      0.181986     -0.000000
C      0.36481      9.19741      7.50000         0.181986      0.077539     -0.000000
C     10.76459      1.93199      7.50000        -0.181986     -0.077539      0.000000
C      9.37372      2.10786      7.50000         0.007692     -0.322661     -0.000000
C      1.75568      9.02154      7.50000        -0.007692      0.322661      0.000000
C      9.02154      9.37372      7.50000         0.322661      0.007692     -0.000000
C      2.10786      1.75568      7.50000        -0.322661     -0.007692      0.000000
N      3.97014     10.02121      7.50000        -0.109002      0.066707     -0.000000
N      7.15926      1.10819      7.50000         0.109002     -0.066707      0.000000
N      1.10819      3.97014      7.50000        -0.066707     -0.109002     -0.000000
N     10.02121      7.15926      7.50000         0.066707      0.109002      0.000000
Ir     -0.00000     -0.00000      7.50000        -0.000000     -0.000000     -0.000000
Ir      5.56470     -0.00000      7.50000        -0.000000     -0.000000     -0.000000
Ir     -0.00000      5.56470      7.50000        -0.000000     -0.000000     -0.000000
