152
# total energy = -1023.23486054 eVH     10.35389      5.87395      7.64558         0.489325      0.082665      0.711874
H     10.62451     15.10445      7.64558        -0.110417     -0.053404      0.810141
H     10.62451      5.87395     13.33282         0.145616      0.127834     -0.637824
H     10.35389     15.10445     13.33282        -0.173259     -0.120692     -0.543479
H      7.64558     10.35389      5.87395         0.311700     -0.022006      0.191686
H      7.64558     10.62451     15.10445         0.649551     -0.220144     -0.136769
H     13.33282     10.62451      5.87395        -0.769057     -0.151726      0.203060
H     13.33282     10.35389     15.10445        -0.437166     -0.104552     -0.061514
H      5.87395      7.64558     10.35389         0.209373      1.098943     -0.269380
H     15.10445      7.64558     10.62451        -0.175665      0.470824     -0.122131
H      5.87395     13.33282     10.62451         0.160681     -0.423930     -0.064987
H     15.10445     13.33282     10.35389        -0.130507     -0.911716      0.015340
H      5.87395     10.35389      7.64558         0.134854      0.095918      0.459932
H     15.10445     10.62451      7.64558         0.098357     -0.019549      1.071692
H      5.87395     10.62451     13.33282         0.194176     -0.032022     -0.388369
H     15.10445     10.35389     13.33282        -0.120979     -0.052557     -0.544608
H     10.35389      7.64558      5.87395         0.127641      0.883571      0.186773
H     10.62451      7.64558     15.10445        -0.009073      0.525366     -0.164588
H     10.62451     13.33282      5.87395        -0.019204     -0.590807      0.221612
H     10.35389     13.33282     15.10445        -0.295249     -0.890290     -0.126612
H      7.64558      5.87395     10.35389         0.442929      0.096049     -0.052398
H      7.64558     15.10445     10.62451         0.851312     -0.279374      0.034695
H     13.33282      5.87395     10.62451        -0.454875      0.185911     -0.067026
H     13.33282     15.10445     10.35389        -0.659689     -0.099061      0.162211
H     12.45634     12.45634     19.01126         0.252384      0.264168     -0.230841
H     19.01126     19.01126     19.01126        -0.251917     -0.231267     -0.262600
H     19.01126     12.45634     12.45634        -0.235997      0.272592      0.239022
H     12.45634     19.01126     12.45634         0.224566     -0.264183      0.248961
C     10.35284      5.61067      6.59456        -0.194629     -0.361338     -0.030068
C     10.62556     15.36773      6.59456         0.068686      0.374025     -1.219944
C     10.62556      5.61067     14.38384        -0.056586     -0.247252      0.804193
C     10.35284     15.36773     14.38384         0.045849      0.884344      0.411884
C      6.59456     10.35284      5.61067        -0.369287     -0.036440     -0.173056
C      6.59456     10.62556     15.36773        -0.838993      0.198938      0.367589
C     14.38384     10.62556      5.61067         0.457530      0.299972     -0.504499
C     14.38384     10.35284     15.36773         0.778702     -0.113883      0.443389
C      5.61067      6.59456     10.35284        -0.313466     -0.649896      0.426871
C     15.36773      6.59456     10.62556         0.169613     -0.517089      0.079720
C      5.61067     14.38384     10.62556        -0.144412      0.388727     -0.024040
C     15.36773     14.38384     10.35284         0.396339     -0.039170     -0.104591
C      5.61067     10.35284      6.59456        -0.257386     -0.019769     -0.782442
C     15.36773     10.62556      6.59456         0.605608     -0.270411     -1.344300
C      5.61067     10.62556     14.38384        -0.342452     -0.000023      0.428362
C     15.36773     10.35284     14.38384         0.493245     -0.165516      1.129119
C     10.35284      6.59456      5.61067        -0.166405     -0.493472     -0.434942
C     10.62556      6.59456     15.36773         0.055208     -0.629241      0.267764
C     10.62556     14.38384      5.61067         0.104535      1.001553     -0.494321
C     10.35284     14.38384     15.36773         0.251337      0.596653      0.536662
C      6.59456      5.61067     10.35284        -0.102859     -0.814387      0.073529
C      6.59456     15.36773     10.62556        -1.524723      0.411077      0.107051
C     14.38384      5.61067     10.62556         0.646024     -0.274976     -0.017769
C     14.38384     15.36773     10.35284        -0.430711      0.680598     -0.314346
C     10.40319      3.19606      7.29314         0.006956      0.837435     -0.296331
C     10.35913      4.25547      6.23373        -0.054429     -0.465544      0.506174
C      0.08601      7.29314      7.29314        -0.006998     -0.260583     -0.511349
C      0.13007      6.23373      6.23373         0.030798      0.144214      0.208047
C      0.08601      3.19606      3.19606        -0.011539      0.641971      0.195970
C      0.13007      4.25547      4.25547        -0.093165     -0.181388     -0.200164
C     10.40319      7.29314      3.19606        -0.007952     -0.648916      0.561558
C     10.35913      6.23373      4.25547        -0.043927      0.273030     -0.612691
C      7.29314     10.40319      3.19606        -0.324194      0.026781      0.937296
C      6.23373     10.35913      4.25547         0.172756      0.030707     -0.126682
C      7.29314      0.08601      7.29314        -0.308206     -0.037807     -0.300996
C      6.23373      0.13007      6.23373         0.332125     -0.051386      0.323563
C      3.19606      0.08601      3.19606         0.528303     -0.033539      0.706854
C      4.25547      0.13007      4.25547        -0.091781     -0.031760     -0.375487
C      3.19606     10.40319      7.29314         0.724375      0.001219     -0.406881
C      4.25547     10.35913      6.23373        -0.157326      0.030225      0.084024
C      3.19606      7.29314     10.40319         0.674061     -1.283823     -0.011263
C      4.25547      6.23373     10.35913        -0.652412      0.916474      0.082160
C      7.29314      7.29314      0.08601        -0.681236     -0.182045     -0.019980
C      6.23373      6.23373      0.13007         0.215100      0.204405      0.015706
C      3.19606      3.19606      0.08601         0.267678      0.293116     -0.022205
C      4.25547      4.25547      0.13007        -0.072737     -0.038400     -0.003244
C      7.29314      3.19606     10.40319        -0.362679      1.008300      0.015218
C      6.23373      4.25547     10.35913         1.063889     -0.028177      0.012189
O     10.43466      3.58206      8.50569        -0.043596      0.047900      0.384579
O     10.54374     17.39634      8.50569        -0.039966     -0.169936      0.584191
O     10.54374      3.58206     12.47271         0.050218      0.062641     -0.314290
O     10.43466     17.39634     12.47271        -0.009606     -0.139141     -0.631868
O      8.50569     10.43466      3.58206         0.351028     -0.028428     -0.030352
O      8.50569     10.54374     17.39634         0.471597      0.044941     -0.146965
O     12.47271     10.54374      3.58206        -0.482429      0.012848      0.081557
O     12.47271     10.43466     17.39634        -0.811031      0.002656     -0.197339
O      3.58206      8.50569     10.43466         0.111101      1.043326      0.015384
O     17.39634      8.50569     10.54374        -0.031881      0.311464      0.073389
O      3.58206     12.47271     10.54374         0.072534     -0.461421      0.049957
O     17.39634     12.47271     10.43466        -0.175770     -0.896783      0.055487
O      3.58206     10.43466      8.50569        -0.065157     -0.069314      0.321636
O     17.39634     10.54374      8.50569        -0.130854      0.041923      0.461142
O      3.58206     10.54374     12.47271         0.089570     -0.024379     -0.641759
O     17.39634     10.43466     12.47271        -0.183205      0.054523     -0.785254
O     10.43466      8.50569      3.58206         0.027676      0.646716      0.154747
O     10.54374      8.50569     17.39634         0.061817      0.445054     -0.084998
O     10.54374     12.47271      3.58206        -0.011782     -0.731634      0.230311
O     10.43466     12.47271     17.39634         0.034219     -0.849075     -0.241893
O      8.50569      3.58206     10.43466         0.441490      0.021340     -0.040930
O      8.50569     17.39634     10.54374         0.690234     -0.263131     -0.063381
O     12.47271      3.58206     10.54374        -0.462519      0.152859      0.041422
O     12.47271     17.39634     10.43466        -0.554421     -0.022051     -0.007853
O     11.90042     11.90042     19.56718        -0.294287     -0.313780      0.254993
O     19.56718     19.56718     19.56718         0.283077      0.263462      0.310361
O     19.56718     11.90042     11.90042         0.260442     -0.321943     -0.244404
O     11.90042     19.56718     11.90042        -0.272072      0.278242     -0.267086
O      9.45224      1.03696      9.45224        -0.083012      0.041799     -0.070725
O      1.03696      9.45224      9.45224         0.014320     -0.169502     -0.098585
O      1.03696      1.03696      1.03696         0.002030      0.069717      0.179116
O      9.45224      9.45224      1.03696        -0.062797     -0.100405      0.106445
Zr     10.48920      2.52580     10.48920         0.001429     -0.095269     -0.053613
Zr     10.48920     18.45260     10.48920         0.130850      0.354745     -0.002930
Zr     10.48920     10.48920      2.52580         0.013343     -0.033889     -0.390078
Zr     10.48920     10.48920     18.45260        -0.157797     -0.057928      0.372457
Zr      2.52580     10.48920     10.48920        -0.330671      0.242835     -0.128696
Zr     18.45260     10.48920     10.48920         0.278193     -0.014613     -0.284365
Pd      8.99285     10.13134     13.31153        -0.039153     -0.024391      0.011799
Pd     10.69072      9.70707     10.85687        -0.012265     -0.019472     -0.055931
Pd     13.73128      8.39920     12.57516        -0.014543     -0.008717      0.012013
Pd     11.01008     10.91509     14.96712        -0.025146     -0.016846     -0.005370
Pd     12.90678     11.02399     12.95924         0.016229      0.003171      0.026802
Pd     15.10145     11.10076     11.31416         0.001364     -0.017748     -0.004487
Pd      6.60152      7.70677     12.31861        -0.010669      0.026397      0.012212
Pd      9.31700      7.29725      9.86934        -0.007956     -0.012105     -0.011610
Pd      9.22895      7.47677     12.63161        -0.007866     -0.010686     -0.010449
Pd     11.63798      7.16085     11.42033        -0.012463     -0.009365     -0.001147
Pd     11.69761      8.00017      8.90671         0.015212     -0.025237     -0.015743
Pd      7.37838     11.77977     11.78067        -0.007474     -0.001505     -0.008104
Pd      9.19639     14.75975      9.43968         0.012614      0.000262      0.004535
Pd      8.40538     12.55610     14.25602        -0.006015     -0.008930     -0.010890
Pd     14.09272     14.25401      8.31320        -0.002477     -0.009830      0.003019
Pd     11.49812     13.65016      8.72544         0.015765     -0.016413      0.011433
Pd     14.16397     11.69534      8.88872        -0.021430     -0.012385      0.015829
Pd      8.72165     14.03705     12.06820         0.003744     -0.008396     -0.007219
Pd     12.27407     13.50293     14.14222        -0.005350     -0.000295     -0.012940
Pd     11.34425     14.42885     11.44009         0.006819     -0.013656      0.001417
Pd     14.07939     13.60148     12.27002         0.006835     -0.012967     -0.001221
Pd     12.42569     12.16950     10.72457        -0.000370     -0.034278     -0.003072
Pd     12.75279     12.52524      6.67794        -0.007026     -0.006353      0.018811
Pd     13.93267      9.00343      7.99479         0.001503     -0.004146      0.000473
Pd      6.94018      8.50004      8.76290        -0.002868     -0.011815     -0.014044
Pd      5.62541     10.10562     10.71944        -0.003722     -0.002257     -0.042895
Pd      9.39695      9.47058      8.11707        -0.000671     -0.033489     -0.035255
Pd      8.57151      7.03434      7.23904        -0.016418     -0.030816     -0.007451
Pd      9.76334     12.13229     10.35616         0.002850     -0.007666     -0.005201
Pd     11.63723     10.81811      8.49085         0.003478     -0.008393      0.002012
Pd     11.58247      9.09709      6.47058         0.012324     -0.003988     -0.005192
Pd     10.08733     11.34711      6.31341        -0.006325      0.002849      0.008716
Ir     11.29687      9.00296     13.22230        -0.025365      0.022432     -0.037177
Ir     13.22094      9.62075     10.38593        -0.011895     -0.011843     -0.035510
Ir     10.55490     12.22921     12.73534        -0.000929     -0.021600      0.013833
Ir      7.59995     11.00706      9.25514         0.015182     -0.008208     -0.024327
Ir      8.85399     12.60784      8.07501         0.036312     -0.001300     -0.006826
Ir      8.19559      9.31164     11.00686        -0.011791     -0.020475     -0.007831
