9
# total energy = -71.25845629 eVC      2.67630      0.76321      7.50000         0.000000      0.029432      0.000000
C      2.67630      4.58939      7.50000         0.000000     -0.029432     -0.000000
C      4.58939      2.67630      7.50000        -0.029432      0.000000     -0.000000
C      0.76321      2.67630      7.50000         0.029432      0.000000      0.000000
C      3.95758      3.95758      7.50000        -0.024866     -0.024866     -0.000000
C      1.39502      1.39502      7.50000         0.024866      0.024866      0.000000
C      1.39502      3.95758      7.50000         0.024866     -0.024866      0.000000
C      3.95758      1.39502      7.50000        -0.024866      0.024866     -0.000000
Pd     -0.00000      0.00000      7.50000         0.000000      0.000000     -0.000000
