152
# total energy = -1110.38657481 eVH     10.35389      5.87395      7.64558        -0.372521     -0.135384      1.109747
H     10.62451     15.10445      7.64558         0.341527      0.079277      0.929482
H     10.62451      5.87395     13.33282        -0.320071     -0.685441     -1.361488
H     10.35389     15.10445     13.33282        -0.599471      0.421861     -0.327636
H      7.64558     10.35389      5.87395         0.550883     -0.525194     -0.095358
H      7.64558     10.62451     15.10445         0.381061     -0.237696      0.044511
H     13.33282     10.62451      5.87395        -0.565883      0.638965     -0.040640
H     13.33282     10.35389     15.10445        -0.526993      0.398104      0.158662
H      5.87395      7.64558     10.35389         0.148852      0.546394      0.030756
H     15.10445      7.64558     10.62451         0.430507      0.991605      0.272379
H      5.87395     13.33282     10.62451        -0.222649     -0.492972      0.361935
H     15.10445     13.33282     10.35389         0.027859     -0.301368     -0.381188
H      5.87395     10.35389      7.64558        -0.093140     -0.392057      1.465860
H     15.10445     10.62451      7.64558         0.216338      0.492966      1.313118
H      5.87395     10.62451     13.33282        -0.205455     -0.365742     -1.194249
H     15.10445     10.35389     13.33282         0.598152      0.971471     -1.530781
H     10.35389      7.64558      5.87395        -0.567987      0.517980     -0.177661
H     10.62451      7.64558     15.10445        -0.137431      0.473187      0.169266
H     10.62451     13.33282      5.87395         0.877094     -1.350771     -0.316969
H     10.35389     13.33282     15.10445         0.240480     -0.560500     -0.099182
H      7.64558      5.87395     10.35389         0.716478      0.168431     -0.164282
H      7.64558     15.10445     10.62451         1.979696      0.763846      0.216205
H     13.33282      5.87395     10.62451        -2.674211     -0.932206     -0.491960
H     13.33282     15.10445     10.35389        -0.877534     -0.053294     -0.251618
H     12.45634     12.45634     19.01126         0.271980      0.257918     -0.227236
H     19.01126     19.01126     19.01126        -0.266797     -0.254868     -0.238522
H     19.01126     12.45634     12.45634        -0.283584      0.281481      0.185679
H     12.45634     19.01126     12.45634         0.256213     -0.250852      0.235893
C     10.35284      5.61067      6.59456         0.078069     -0.495739     -1.218100
C     10.62556     15.36773      6.59456         0.183047      0.756600     -0.814903
C     10.62556      5.61067     14.38384         0.183414     -0.303184      1.794305
C     10.35284     15.36773     14.38384         0.093529      0.385712      1.800199
C      6.59456     10.35284      5.61067        -1.134281     -0.110081     -0.879704
C      6.59456     10.62556     15.36773        -0.700639     -0.098327      0.780738
C     14.38384     10.62556      5.61067         0.852704     -0.110433     -0.997299
C     14.38384     10.35284     15.36773         1.190360      0.167957      1.103669
C      5.61067      6.59456     10.35284        -0.669850     -0.883766     -0.183687
C     15.36773      6.59456     10.62556         1.989630     -0.290045     -0.186709
C      5.61067     14.38384     10.62556        -1.570128     -0.009259     -0.136588
C     15.36773     14.38384     10.35284         0.485449      0.081119      0.007122
C      5.61067     10.35284      6.59456        -0.275471      0.204383     -1.348608
C     15.36773     10.62556      6.59456         0.288994     -0.250026     -0.990612
C      5.61067     10.62556     14.38384        -0.257165      0.434632      1.455840
C     15.36773     10.35284     14.38384         0.027258     -0.466017      1.940080
C     10.35284      6.59456      5.61067        -0.170603     -0.867301     -0.690849
C     10.62556      6.59456     15.36773        -0.114510     -0.737949      1.050127
C     10.62556     14.38384      5.61067        -0.501939      2.001273     -0.765574
C     10.35284     14.38384     15.36773        -0.268851      1.389094      0.495562
C      6.59456      5.61067     10.35284        -0.978044     -0.411101      0.089674
C      6.59456     15.36773     10.62556        -1.276954      0.370602     -0.331748
C     14.38384      5.61067     10.62556         1.280538     -1.278937      0.195706
C     14.38384     15.36773     10.35284         0.450158      0.312925      0.079346
C     10.40319      3.19606      7.29314         0.001352      0.306661     -0.106565
C     10.35913      4.25547      6.23373         0.141141     -0.555037      0.015882
C      0.08601      7.29314      7.29314        -0.053269     -0.289005     -0.422708
C      0.13007      6.23373      6.23373        -0.122438      0.686508      0.023679
C      0.08601      3.19606      3.19606        -0.106590      1.649540      0.168808
C      0.13007      4.25547      4.25547        -0.091250     -0.397155     -1.219798
C     10.40319      7.29314      3.19606         0.015873     -0.439798      0.123194
C     10.35913      6.23373      4.25547         0.262569      0.084378     -0.522385
C      7.29314     10.40319      3.19606        -1.684162      0.009188      0.324519
C      6.23373     10.35913      4.25547         0.662859      0.079250     -0.616813
C      7.29314      0.08601      7.29314        -0.408558     -0.013627     -0.312330
C      6.23373      0.13007      6.23373         0.703945     -0.056523      0.255169
C      3.19606      0.08601      3.19606         0.659107     -0.017214      0.182610
C      4.25547      0.13007      4.25547        -0.365437     -0.080223     -0.549766
C      3.19606     10.40319      7.29314         0.359216      0.021303     -0.317642
C      4.25547     10.35913      6.23373        -0.733915      0.072581      0.364720
C      3.19606      7.29314     10.40319         0.289548     -0.206788     -0.006563
C      4.25547      6.23373     10.35913         0.043886      0.638861      0.091718
C      7.29314      7.29314      0.08601        -0.717775     -0.609249     -0.023840
C      6.23373      6.23373      0.13007         0.888790      1.126753     -0.068986
C      3.19606      3.19606      0.08601         0.820018      0.509721      0.005217
C      4.25547      4.25547      0.13007        -0.328445     -1.755993     -0.128471
C      7.29314      3.19606     10.40319        -0.327367      0.272979     -0.004130
C      6.23373      4.25547     10.35913         0.507336     -0.024271      0.230089
O     10.43466      3.58206      8.50569        -0.048417      0.184907      0.258553
O     10.54374     17.39634      8.50569         0.042142     -0.234677      0.485818
O     10.54374      3.58206     12.47271         0.083892     -0.069871     -0.029081
O     10.43466     17.39634     12.47271        -0.023105     -0.141715     -0.272125
O      8.50569     10.43466      3.58206         0.989493      0.187561      0.381512
O      8.50569     10.54374     17.39634         0.576578      0.084586     -0.229136
O     12.47271     10.54374      3.58206        -0.418248     -0.039924      0.184346
O     12.47271     10.43466     17.39634        -0.511466     -0.068638     -0.194766
O      3.58206      8.50569     10.43466         0.183500      0.427414     -0.029399
O     17.39634      8.50569     10.54374        -0.230543      0.713982      0.045254
O      3.58206     12.47271     10.54374         0.161603     -0.679139      0.025671
O     17.39634     12.47271     10.43466        -0.186096     -0.477068     -0.011117
O      3.58206     10.43466      8.50569         0.227476     -0.060690      0.403794
O     17.39634     10.54374      8.50569        -0.171286      0.037158      0.411634
O      3.58206     10.54374     12.47271         0.147568      0.021318     -0.304613
O     17.39634     10.43466     12.47271         0.076803     -0.050869     -0.075875
O     10.43466      8.50569      3.58206         0.002632      0.273829      0.182526
O     10.54374      8.50569     17.39634         0.070140      0.431567     -0.176926
O     10.54374     12.47271      3.58206        -0.222143     -0.972505      0.336670
O     10.43466     12.47271     17.39634        -0.083126     -0.449941     -0.245161
O      8.50569      3.58206     10.43466         0.491773      0.196910     -0.010955
O      8.50569     17.39634     10.54374         0.664485     -0.201123      0.022049
O     12.47271      3.58206     10.54374        -0.744743      0.279458      0.037171
O     12.47271     17.39634     10.43466        -0.434980     -0.204375     -0.043849
O     11.90042     11.90042     19.56718        -0.346781     -0.307363      0.260075
O     19.56718     19.56718     19.56718         0.324688      0.311772      0.283375
O     19.56718     11.90042     11.90042         0.275660     -0.274999     -0.139285
O     11.90042     19.56718     11.90042        -0.305663      0.284564     -0.233500
O      9.45224      1.03696      9.45224        -0.060107      0.072648     -0.046264
O      1.03696      9.45224      9.45224         0.035787     -0.074600     -0.071067
O      1.03696      1.03696      1.03696         0.061434      0.146262      0.098287
O      9.45224      9.45224      1.03696        -0.139574     -0.095284      0.098524
Zr     10.48920      2.52580     10.48920         0.159447     -0.170548     -0.165334
Zr     10.48920     18.45260     10.48920        -0.099930      0.184469     -0.048683
Zr     10.48920     10.48920      2.52580         0.338664     -0.309913     -0.201390
Zr     10.48920     10.48920     18.45260         0.011195     -0.088090      0.202843
Zr      2.52580     10.48920     10.48920        -0.069890      0.176132     -0.051961
Zr     18.45260     10.48920     10.48920         0.143931     -0.130214     -0.250920
Ir     12.04230     12.48475     10.45745         0.000360      0.000275     -0.004881
Ir     11.20612      7.41530     10.26795         0.019971     -0.009316     -0.028334
Ir      8.84841      7.35846     11.54168         0.000465     -0.009799     -0.013570
Ir      7.47144     11.65038      7.65905        -0.006121     -0.000064     -0.004449
Ir     11.59452     12.07939      7.11688         0.000036     -0.004214      0.002967
Ir     13.77507      8.99138      7.53572         0.009896      0.005936     -0.015159
Ir     12.47729     13.95391      8.41220        -0.005800     -0.004116     -0.002134
Ir      9.73343     11.25800      5.54899         0.006626     -0.007315     -0.003650
Ir      9.07693     13.45293      7.07638        -0.003937     -0.011678      0.006823
Ir      9.27253      9.66849      7.51020        -0.002212      0.008118     -0.018233
Ir     13.28336      7.03841     11.95637         0.004269      0.001411      0.004854
Ir     13.61696      7.03960      9.11178         0.023538     -0.003980      0.003992
Ir     11.04247      7.59500     12.81848         0.007472     -0.009693     -0.004508
Ir     13.60293     11.56437      8.75305        -0.007487      0.001580     -0.000615
Ir     11.50382      9.63322      6.22593        -0.006329     -0.007248     -0.002866
Ir      7.15729      9.15717      8.92749         0.001967     -0.009056     -0.003778
Ir     14.05966     11.43655     11.65229         0.003074      0.002517     -0.004800
Ir     11.65846      9.83969      8.87351         0.008176     -0.008646     -0.017702
Ir      9.44015      9.50570     10.23349        -0.011873      0.008829      0.007207
Ir     13.87407      9.40955     10.17521         0.008960      0.003749     -0.003428
Ir     13.82759      9.16216     12.89086         0.007339     -0.002604     -0.010161
Ir     11.69749      9.76035     11.54984         0.007328      0.007315     -0.005901
Ir      9.91380     11.73556      8.96739         0.003688     -0.000710     -0.008511
Ir      9.09305      7.43378      8.79302         0.013282     -0.009810     -0.027440
Ir     11.60500      7.54307      7.74319         0.025761     -0.017974     -0.019629
Ir      9.25537      9.47521     13.00967        -0.004861      0.005236     -0.011374
Ir      7.51078     13.90365      8.99459        -0.002241     -0.001838     -0.002946
Ir     10.87242     14.10582     11.95093        -0.005367     -0.009796      0.000839
Ir     10.11286     14.15234      9.51828        -0.000782     -0.011168     -0.002982
Ir      9.79242     11.68557     11.72518        -0.011406     -0.019524      0.009117
Ir      7.58913     11.56901     10.20936         0.003325     -0.014484      0.011876
Ir      8.34926     13.74158     11.58402        -0.006202     -0.009270     -0.000127
Ir      7.52550     11.55463     12.82557         0.009132     -0.012994     -0.011602
Ir      9.77420     11.60355     14.34397         0.004784     -0.013605     -0.008288
Ir     13.47215     13.88376     12.18848        -0.004317      0.001717     -0.002934
Ir     11.99082     12.04789     13.08049        -0.006767     -0.006405     -0.004182
Ir     11.58122      9.79180     14.18971         0.004286     -0.009584     -0.010398
Ir      7.15381      9.35757     11.48781         0.014634     -0.004894     -0.008107
