152
# total energy = -1005.96266967 eVH     10.35389      5.87395      7.64558         0.228890      0.043391      0.626276
H     10.62451     15.10445      7.64558        -0.107192     -0.147527      0.533892
H     10.62451      5.87395     13.33282         0.492831      0.122258     -0.595351
H     10.35389     15.10445     13.33282         0.065438     -0.185051     -0.535879
H      7.64558     10.35389      5.87395         0.366549      0.032093      0.173593
H      7.64558     10.62451     15.10445         0.685108      0.466727     -0.043757
H     13.33282     10.62451      5.87395        -0.522944      0.407278      0.075238
H     13.33282     10.35389     15.10445        -0.791358     -0.086287     -0.006297
H      5.87395      7.64558     10.35389         0.267219      0.927051     -0.154126
H     15.10445      7.64558     10.62451        -0.098401      0.484359      0.280928
H      5.87395     13.33282     10.62451         0.153985     -0.696167     -0.166449
H     15.10445     13.33282     10.35389        -0.003956     -1.049785     -0.324304
H      5.87395     10.35389      7.64558         0.240510      0.070001      0.531998
H     15.10445     10.62451      7.64558        -0.116208      0.414294      0.781952
H      5.87395     10.62451     13.33282         0.145378      0.345768     -0.687813
H     15.10445     10.35389     13.33282        -0.039640     -0.066903     -0.702294
H     10.35389      7.64558      5.87395         0.338264      1.074353      0.002063
H     10.62451      7.64558     15.10445         0.530378      0.532755     -0.117098
H     10.62451     13.33282      5.87395        -0.403015     -0.831775      0.198316
H     10.35389     13.33282     15.10445        -0.040629     -0.431753     -0.218536
H      7.64558      5.87395     10.35389         0.852235      0.077999     -0.272721
H      7.64558     15.10445     10.62451         0.824017     -0.203796     -0.008175
H     13.33282      5.87395     10.62451        -0.783822      0.186660      0.594040
H     13.33282     15.10445     10.35389        -0.437225     -0.104679     -0.133721
H     12.45634     12.45634     19.01126         0.236167      0.270319     -0.239549
H     19.01126     19.01126     19.01126        -0.261377     -0.240851     -0.261826
H     19.01126     12.45634     12.45634        -0.267551      0.267670      0.220567
H     12.45634     19.01126     12.45634         0.233087     -0.258285      0.274727
C     10.35284      5.61067      6.59456        -0.418042     -0.675229      0.090517
C     10.62556     15.36773      6.59456         0.067729      0.363216     -0.311321
C     10.62556      5.61067     14.38384        -0.329231     -0.385260     -0.278871
C     10.35284     15.36773     14.38384        -0.005044      0.325506      0.530130
C      6.59456     10.35284      5.61067        -0.327444     -0.004716     -0.281747
C      6.59456     10.62556     15.36773        -0.237406     -0.216995      0.781958
C     14.38384     10.62556      5.61067        -0.217688     -0.396165     -0.529720
C     14.38384     10.35284     15.36773         0.962890     -0.069024      0.249355
C      5.61067      6.59456     10.35284        -0.540643     -0.035916     -0.109606
C     15.36773      6.59456     10.62556         0.546718      0.005682     -0.248745
C      5.61067     14.38384     10.62556        -0.309547      0.981301      0.079683
C     15.36773     14.38384     10.35284         0.282807      1.048955      0.051799
C      5.61067     10.35284      6.59456        -0.205617     -0.115442     -0.611725
C     15.36773     10.62556      6.59456         0.439670     -0.260800      0.114809
C      5.61067     10.62556     14.38384        -0.678255     -0.346703     -0.111282
C     15.36773     10.35284     14.38384         0.383873     -0.063166      1.024376
C     10.35284      6.59456      5.61067        -0.218591     -0.370191     -0.640324
C     10.62556      6.59456     15.36773        -0.267883      0.135126      0.456021
C     10.62556     14.38384      5.61067         0.202400      1.057265     -0.337882
C     10.35284     14.38384     15.36773         0.009855      0.550817      0.420980
C      6.59456      5.61067     10.35284        -0.085998     -0.846952      0.273886
C      6.59456     15.36773     10.62556        -0.997313      0.272461      0.081457
C     14.38384      5.61067     10.62556         0.479420     -0.548401     -0.374061
C     14.38384     15.36773     10.35284         0.217139      0.456488     -0.093727
C     10.40319      3.19606      7.29314         0.016059      0.666855     -0.483046
C     10.35913      4.25547      6.23373         0.089374     -0.685912     -0.000493
C      0.08601      7.29314      7.29314        -0.043611     -0.408283     -0.322006
C      0.13007      6.23373      6.23373        -0.024113      0.096608      0.571627
C      0.08601      3.19606      3.19606        -0.007145      1.300182      0.286152
C      0.13007      4.25547      4.25547         0.051754     -0.780744     -0.165746
C     10.40319      7.29314      3.19606         0.011616     -0.313937      0.311631
C     10.35913      6.23373      4.25547         0.023424      0.013458     -0.803105
C      7.29314     10.40319      3.19606        -0.295522      0.022106      0.560210
C      6.23373     10.35913      4.25547         0.182548      0.061197     -0.077177
C      7.29314      0.08601      7.29314        -0.505557     -0.066023     -0.377951
C      6.23373      0.13007      6.23373         0.677974     -0.061717      0.474161
C      3.19606      0.08601      3.19606         0.781183     -0.030838      0.578157
C      4.25547      0.13007      4.25547        -0.588262     -0.088447     -0.539956
C      3.19606     10.40319      7.29314         0.474528     -0.010146     -0.745276
C      4.25547     10.35913      6.23373        -0.328186      0.068847      0.192976
C      3.19606      7.29314     10.40319         0.298619     -1.291013      0.047887
C      4.25547      6.23373     10.35913        -0.867619      0.108882      0.139686
C      7.29314      7.29314      0.08601        -0.408810     -0.378936     -0.025357
C      6.23373      6.23373      0.13007         0.456775      0.219649     -0.011838
C      3.19606      3.19606      0.08601         0.482177      0.373852     -0.041942
C      4.25547      4.25547      0.13007        -0.155964     -0.646952     -0.036378
C      7.29314      3.19606     10.40319        -0.331933      0.447891      0.074528
C      6.23373      4.25547     10.35913         0.306048     -0.677761      0.149378
O     10.43466      3.58206      8.50569        -0.016874      0.109854      0.506840
O     10.54374     17.39634      8.50569         0.034870     -0.175583      0.493438
O     10.54374      3.58206     12.47271         0.050791     -0.096335     -0.179443
O     10.43466     17.39634     12.47271        -0.039189     -0.184079     -0.530350
O      8.50569     10.43466      3.58206         0.288460     -0.009312      0.020936
O      8.50569     10.54374     17.39634         0.621411      0.036774     -0.143309
O     12.47271     10.54374      3.58206        -0.738509      0.087469      0.095297
O     12.47271     10.43466     17.39634        -0.439765      0.022722     -0.109536
O      3.58206      8.50569     10.43466         0.165834      1.046380     -0.035224
O     17.39634      8.50569     10.54374        -0.160880      0.543616      0.076453
O      3.58206     12.47271     10.54374         0.087764     -0.373578      0.050478
O     17.39634     12.47271     10.43466        -0.156357     -0.545598     -0.022837
O      3.58206     10.43466      8.50569         0.081600     -0.070240      0.585569
O     17.39634     10.54374      8.50569        -0.112145      0.066859      0.529034
O      3.58206     10.54374     12.47271         0.028404      0.043212     -0.513883
O     17.39634     10.43466     12.47271        -0.226296     -0.038913     -0.615691
O     10.43466      8.50569      3.58206        -0.039305      0.444830      0.138619
O     10.54374      8.50569     17.39634         0.051439      0.534264     -0.158050
O     10.54374     12.47271      3.58206         0.011352     -1.032993      0.193173
O     10.43466     12.47271     17.39634         0.038914     -0.712737     -0.172929
O      8.50569      3.58206     10.43466         0.516419      0.147433     -0.055655
O      8.50569     17.39634     10.54374         0.486076     -0.194676      0.014898
O     12.47271      3.58206     10.54374        -0.625642      0.224895      0.010077
O     12.47271     17.39634     10.43466        -0.230078      0.064403     -0.051162
O     11.90042     11.90042     19.56718        -0.240269     -0.289578      0.248816
O     19.56718     19.56718     19.56718         0.310421      0.295414      0.302806
O     19.56718     11.90042     11.90042         0.294487     -0.263848     -0.232958
O     11.90042     19.56718     11.90042        -0.240814      0.292302     -0.324408
O      9.45224      1.03696      9.45224        -0.018039      0.089443     -0.072258
O      1.03696      9.45224      9.45224         0.092916     -0.091087     -0.132536
O      1.03696      1.03696      1.03696         0.094018      0.188108      0.051700
O      9.45224      9.45224      1.03696        -0.107156     -0.106433      0.036020
Zr     10.48920      2.52580     10.48920        -0.128045     -0.285243     -0.037036
Zr     10.48920     18.45260     10.48920        -0.072261      0.214756      0.070662
Zr     10.48920     10.48920      2.52580        -0.004687     -0.402424     -0.264398
Zr     10.48920     10.48920     18.45260        -0.277859     -0.094490      0.318593
Zr      2.52580     10.48920     10.48920        -0.384469      0.237272      0.268862
Zr     18.45260     10.48920     10.48920         0.235163     -0.000915     -0.220061
Pd     13.58403      8.93541      9.25536         0.006949      0.008401     -0.005488
Pd      5.63775      9.87371     10.16215        -0.003835      0.005131     -0.004145
Pd      6.79064     11.85664     11.68667        -0.004732      0.001277      0.006160
Pd     12.08987     13.02223      7.35430        -0.000368     -0.000960      0.001495
Pd     11.89728      7.74202      7.44220        -0.000226      0.005771      0.003540
Pd      8.30767      6.90264      6.59656        -0.000872     -0.003355     -0.005603
Pd     10.69651     11.18156      5.63077        -0.002954     -0.000303      0.003493
Pd     14.41416      8.55284      6.76890         0.001808     -0.001500     -0.004133
Pd      9.69167     11.74263      8.09151        -0.004822     -0.000348      0.003880
Pd      6.77069      6.80690     12.31217         0.001532     -0.003867      0.001334
Pd      6.48982      7.91547      8.17401         0.006269      0.024906     -0.024815
Pd      6.53612      8.50228     14.34612        -0.001691      0.000158     -0.001869
Pd     11.50444      6.52115      9.89392        -0.003276     -0.004172      0.002282
Pd      9.55430      9.22200      7.12694        -0.007549     -0.000254      0.002162
Pd      8.99154     13.99473      9.30071        -0.001900     -0.002602      0.008286
Pd      9.50515      7.36746     11.73241        -0.006048     -0.001350     -0.002810
Pd     10.59890      8.99185      9.67922        -0.000328     -0.005238      0.000555
Pd      9.33439     11.52825     10.67166        -0.000753     -0.000894      0.005687
Pd      8.91479      7.04158      9.15949        -0.006048     -0.001262     -0.004737
Pd      8.55198      6.56874     14.24181         0.002859      0.010815      0.002249
Pd      7.67398      9.33276     11.95748        -0.003480      0.000434      0.003397
Pd     11.99483     10.38920      7.74130        -0.007169      0.002625      0.004480
Pd      7.14071     12.02173      9.03605        -0.002157     -0.003707      0.007615
Pd      8.10417      9.59652      9.32302         0.000908     -0.001404      0.008590
Pd     14.02793      6.47220      8.50575        -0.001688      0.004594      0.003121
Pd     12.56070      8.35377     11.60217         0.004700      0.003315     -0.008017
Pd      8.76964     11.58118     13.39502        -0.001668      0.002754      0.000626
Pd     13.90462     11.95182      8.96068        -0.003030     -0.003539      0.005441
Pd     12.95588     10.67470     13.04914        -0.004927      0.001885      0.004305
Pd     14.79650     10.44144     11.08752        -0.001486     -0.000201      0.007286
Pd     12.09088     10.88606     10.51750        -0.004673     -0.001917      0.004781
Pd     11.44532     13.33530      9.91658         0.000100     -0.002687     -0.000295
Pd     13.60407     12.91564     11.62575        -0.000473     -0.001106      0.003044
Pd     11.12601     12.59621     12.52189        -0.003157      0.005295     -0.001719
Pd     10.95760     11.04829     14.80508        -0.002378      0.014383      0.001171
Pd     10.50269      9.76561     12.36773        -0.000918     -0.006786      0.004603
Pd      9.08452      9.13464     14.39978        -0.001725      0.010646      0.009406
Pd      8.84073     13.84395     11.99066        -0.008391      0.002322      0.006321
