13
# total energy = -30.09673748 eVAu     13.03008     14.10785     12.70852        -0.027336     -0.002180     -0.023416
Au     16.60416     16.68840     13.85722        -0.029371      0.004026     -0.013776
Au     13.91566     16.82315     13.18710        -0.052479     -0.035305      0.005741
Au     15.30926     12.55585     12.13016         0.045868     -0.025876      0.009124
Au     17.55966     13.96496     13.26314        -0.008878     -0.028686     -0.010077
Au     15.57012     15.23105     11.76793        -0.030174      0.031915      0.053802
Au     14.97525     13.72783     14.61163        -0.029601     -0.034951     -0.053458
Au     17.24286     17.20567     16.47845         0.044407      0.016857      0.004757
Au     14.64318     17.67695     15.70846         0.033690      0.045265      0.021570
Au     17.21794     14.43078     16.02849         0.031800     -0.012332     -0.002819
Au     12.69247     15.36449     15.16387        -0.014267      0.011497     -0.061217
Au     19.09622     15.86352     14.69649        -0.007022      0.005695      0.054152
Au     14.82120     15.23839     16.93020         0.043363      0.024076      0.015618
