13
# total energy = -29.69020189 eVAu     15.85141     17.52405     13.42232         0.098508      0.025790      0.110202
Au     14.23211     15.52245     12.81279        -0.110210      0.021113     -0.162370
Au     17.44296     15.47107     12.40644        -0.178422      0.139721     -0.020945
Au     13.22062     13.03093     13.32699         0.044926      0.044673      0.025240
Au     17.85305     13.79841     14.49144         0.058991      0.010087      0.004975
Au     15.92686     13.14070     12.53625        -0.059768     -0.038870     -0.041974
Au     16.35132     18.30523     16.03818         0.083378      0.055281      0.040668
Au     14.53578     15.68731     17.14813         0.010754      0.033749      0.046228
Au     17.16850     15.70538     16.35489        -0.095527     -0.031837     -0.105682
Au     12.59558     15.04203     15.20385        -0.058001     -0.033583     -0.050653
Au     18.42766     17.12204     14.37288         0.066964      0.061025      0.056443
Au     13.80825     17.54549     15.32323         0.054267      0.004835     -0.210719
Au     15.20040     14.12491     15.01876         0.084139     -0.291985      0.308587
