13
# total energy = -27.98596251 eVAu     14.76650     17.17395     11.92155        -0.190672     -0.088464     -0.101427
Au     15.48081     19.41408     13.75203         0.238301      0.087814      0.108148
Au     17.52134     17.38169     13.01572         0.059490     -0.119504     -0.004149
Au     12.88603     18.01385     13.83914        -0.061026      0.004929     -0.063748
Au     13.30521     15.26252     13.41448         0.075631     -0.069980      0.077016
Au     16.13194     14.84812     12.85600         0.072847      0.047880     -0.067769
Au     15.32521     16.79142     14.66320        -0.048182      0.087519      0.136594
Au     17.39732     18.46964     15.62096        -0.175904      0.038476     -0.094504
Au     14.59730     18.79159     16.46564        -0.015583     -0.168853      0.096323
Au     16.20509     16.57822     17.32822         0.255863      0.123008      0.058206
Au     13.04977     16.40681     16.19380        -0.073663      0.100292     -0.084286
Au     14.84946     14.19858     15.47511        -0.206872     -0.139445     -0.148044
Au     17.76349     15.56688     15.24311         0.069773      0.096328      0.087641
