13
# total energy = -30.37544280 eVAu     13.05572     15.60976     12.17136        -0.001748     -0.015371      0.003228
Au     15.62673     16.77873     12.99551         0.030312      0.008255      0.004465
Au     11.53928     15.14396     14.39322        -0.009568     -0.006288     -0.004288
Au     14.35018     14.17011     14.10313        -0.004311      0.006016     -0.009610
Au     17.09296     14.43686     13.52466        -0.020011      0.016869     -0.017646
Au     15.43773     14.56427     11.34524        -0.000933     -0.007222     -0.008788
Au     16.04080     14.85323     16.13470         0.027572     -0.013952      0.034120
Au     15.98227     17.69201     15.52039        -0.023298     -0.018514     -0.031306
Au     14.78477     16.72761     17.91300         0.035515     -0.006864     -0.000372
Au     17.51426     16.69518     17.66708        -0.004198      0.007821     -0.009056
Au     18.36644     16.19495     15.11031        -0.013296      0.000001      0.036771
Au     13.48000     17.09765     14.67348        -0.003716      0.014597      0.026235
Au     13.23026     15.01347     16.54516        -0.012321      0.014652     -0.023754
