13
# total energy = -28.06515681 eVAu     14.23964     15.48392     11.82582        -0.004385     -0.000981     -0.097371
Au     11.98173     16.14339     13.54949        -0.082459      0.012452     -0.057005
Au     15.88750     13.58282     13.30001         0.026497     -0.077068     -0.046110
Au     14.20695     17.99354     13.20657        -0.032414      0.125689     -0.043257
Au     13.03672     13.45861     13.66816        -0.060439     -0.101881     -0.018319
Au     16.70842     16.34990     13.06884         0.090550      0.022450     -0.053755
Au     17.02596     15.09315     15.62935         0.082459     -0.012452      0.057005
Au     13.12016     17.65381     15.87877        -0.026497      0.077068      0.046110
Au     14.76796     15.75271     17.35311         0.004385      0.000981      0.097371
Au     14.50386     15.61830     14.58942        -0.000000     -0.000000      0.000000
Au     14.80077     13.24306     15.97230         0.032414     -0.125689      0.043257
Au     15.97109     17.77796     15.51068         0.060439      0.101881      0.018319
Au     12.29927     14.88667     16.10997        -0.090550     -0.022450      0.053755
