13
# total energy = -30.00584026 eVAu     11.94794     16.03180     12.91044        -0.022150      0.090675     -0.117851
Au     16.48731     17.04513     13.33028         0.068343     -0.086660      0.000937
Au     13.89223     17.62894     14.03867        -0.036523     -0.028783      0.000946
Au     12.41732     13.37422     13.54472        -0.078663     -0.028764      0.021662
Au     17.09500     14.40380     14.13006         0.078369     -0.056172     -0.115663
Au     14.59226     15.02452     12.88181        -0.028265      0.098161      0.003562
Au     15.53272     15.47383     16.05568         0.052065     -0.081908      0.263995
Au     16.06265     18.65727     15.45810        -0.067603      0.018254      0.000153
Au     13.83889     17.39520     16.90121         0.130447      0.192738      0.129275
Au     16.54611     17.39723     17.83438        -0.005434      0.064687     -0.084394
Au     12.76092     15.38172     15.47140         0.042404     -0.205104     -0.090967
Au     18.11063     16.47901     15.65462        -0.141450      0.036421      0.038062
Au     14.73155     13.07237     14.87243         0.008461     -0.013547     -0.049718
