13
# total energy = -29.87507808 eVAu     15.98918     17.73265     13.48865        -0.011334     -0.180051     -0.005320
Au     14.42687     15.53462     13.04516         0.037741      0.082671     -0.027464
Au     17.26520     15.52125     12.48817        -0.130463      0.278985      0.086013
Au     13.23947     13.01254     13.38804        -0.044801     -0.010218      0.018842
Au     17.88877     13.71527     14.39110         0.162770     -0.057800      0.121784
Au     15.88079     13.11296     12.58520        -0.050316     -0.146027     -0.031450
Au     16.33262     18.46489     16.08459        -0.045728     -0.038622      0.006224
Au     14.47617     15.59502     17.10553         0.147668     -0.029822     -0.160053
Au     16.96935     15.79184     15.98437        -0.135804      0.004444      0.001742
Au     12.55101     15.08608     15.09554        -0.022132      0.011762     -0.014290
Au     18.57948     17.18216     14.34683         0.000889     -0.004762     -0.028677
Au     13.82715     17.52824     15.22184         0.114184      0.024983      0.009757
Au     15.18843     13.74249     15.23114        -0.022676      0.064458      0.022891
